Ionic Liquid Data File for bmim PF6 and R32

6900 atoms
6600 bonds
10000 angles
10800 dihedrals
1000 impropers

21 atom types
17 bond types
21 angle types
12 dihedral types
2 improper types

0.0   50.0 xlo xhi
0.0   50.0 ylo yhi
0.0   50.0 zlo zhi

Masses

1 14.007
2 12.011
3 1.008
4 1.008
5 12.011
6 1.008
7 1.008
8 12.011
9 1.008
10 12.011
11 1.008
12 30.974
13 18.997
14 12.011
15 18.997
16 1.008
