LAMMPS Description

1206 atoms
804 bonds
404 angles
0 dihedrals
0 impropers

8 atom types
4 bond types
3 angle types

0.0 22.7625974731 xlo xhi
0.0 22.7625974731  ylo yhi
0.0 22.7625974731  zlo zhi

Masses

1 15.035
2 12.011
3 14.007
4 12.011
5 15.999
6 35.45
7 15.999
8 6.94

Atoms

1 1 1 0.269 18.75 15.108438 15.806906
2 1 2 0.129 19.225341 15.79277 14.511785
3 1 3 -0.398 19.582464 16.306908 13.538761
4 2 1 0.269 20.74366 18.964183 15.630357
5 2 2 0.129 20.74366 18.412285 14.192648
6 2 3 -0.398 20.74366 17.997644 13.112499
7 3 1 0.269 17.05791 20.743659 20.016024
8 3 2 0.129 15.749045 20.743622 19.204562
9 3 3 -0.398 14.765696 20.743593 18.594911
10 4 1 0.269 15.935542 15.930581 14.263754
11 4 2 0.129 14.849793 15.033649 14.886861
12 4 3 -0.398 14.034072 14.359785 15.355
13 5 1 0.269 13.287883 16.082757 12.072559
14 5 2 0.129 11.815175 16.068105 11.62254
15 5 3 -0.398 10.708732 16.057097 11.284442
16 6 1 0.269 18.92188 2.0 18.754961
17 6 2 0.129 19.962125 2.0 19.890518
18 6 3 -0.398 20.74366 2.0 20.74366
19 7 1 0.269 10.499841 8.062463 2.041136
20 7 2 0.129 11.502867 7.584963 3.107688
21 7 3 -0.398 12.256439 7.226218 3.908987
22 8 1 0.269 5.440372 13.03186 6.30799
23 8 2 0.129 6.944997 13.052312 5.980445
24 8 3 -0.398 8.07542 13.067678 5.73436
25 9 1 0.269 2.0 20.740121 11.26932
26 9 2 0.129 3.457456 20.742142 11.766732
27 9 3 -0.398 4.55244 20.74366 12.140437
28 10 1 0.269 11.298611 2.015625 9.30118
29 10 2 0.129 12.822247 2.006992 9.524916
30 10 3 -0.398 13.966953 2.000506 9.693009
31 11 1 0.269 19.009898 4.737613 18.829474
32 11 2 0.129 18.041802 5.227225 19.922484
33 11 3 -0.398 17.314472 5.59507 20.74366
34 12 1 0.269 20.71881 6.097693 4.224711
35 12 2 0.129 20.732999 7.002512 2.978637
36 12 3 -0.398 20.743659 7.682301 2.042462
37 13 1 0.269 2.001105 16.104757 12.006765
38 13 2 0.129 2.068162 15.101113 10.84066
39 13 3 -0.398 2.118542 14.347076 9.964567
40 14 1 0.269 2.000117 3.733335 3.757456
41 14 2 0.129 1.999872 2.743497 4.93721
42 14 3 -0.398 1.999687 1.999832 5.823558
43 15 1 0.269 4.000666 20.739265 2.000727
44 15 2 0.129 5.165677 20.739276 3.007877
45 15 3 -0.398 6.040948 20.739285 3.764547
46 16 1 0.269 14.211255 17.473936 4.385786
47 16 2 0.129 15.721572 17.256437 4.177853
48 16 3 -0.398 16.856272 17.09303 4.021634
49 17 1 0.269 5.062902 15.90703 6.19246
50 17 2 0.129 4.362329 14.963246 5.197438
51 17 3 -0.398 3.835989 14.254183 4.449879
52 18 1 0.269 12.062098 9.379364 17.577497
53 18 2 0.129 12.011295 8.028352 18.314916
54 18 3 -0.398 11.973126 7.013339 18.868938
55 19 1 0.269 4.954076 11.626469 10.484562
56 19 2 0.129 5.135553 10.184239 10.99313
57 19 3 -0.398 5.271896 9.100694 11.375216
58 20 1 0.269 5.943588 11.710695 2.000026
59 20 2 0.129 7.409761 12.181796 2.000005
60 20 3 -0.398 8.511295 12.535734 1.999989
61 21 1 0.269 5.276187 2.047903 6.757191
62 21 2 0.129 4.491626 3.199318 6.101213
63 21 3 -0.398 3.902186 4.064374 5.608377
64 22 1 0.269 2.000049 16.755774 4.031455
65 22 2 0.129 2.643298 17.420211 5.262858
66 22 3 -0.398 3.12657 17.919401 6.18801
67 23 1 0.269 5.12979 12.94103 3.350576
68 23 2 0.129 6.596332 13.410962 3.355095
69 23 3 -0.398 7.698143 13.764021 3.35849
70 24 1 0.269 1.999887 6.612429 4.800693
71 24 2 0.129 2.001048 5.292958 5.594792
72 24 3 -0.398 2.00192 4.301641 6.191397
73 25 1 0.269 14.076563 14.075935 11.030872
74 25 2 0.129 15.507273 14.442742 10.594841
75 25 3 -0.398 16.582163 14.718324 10.267252
76 26 1 0.269 5.77424 9.21568 6.278761
77 26 2 0.129 6.420121 7.878957 6.688163
78 26 3 -0.398 6.90537 6.874678 6.995745
79 27 1 0.269 15.601609 3.451754 15.841275
80 27 2 0.129 15.066126 3.526982 17.283217
81 27 3 -0.398 14.663818 3.583501 18.366547
82 28 1 0.269 16.603186 14.085865 14.652689
83 28 2 0.129 16.239792 12.589654 14.682613
84 28 3 -0.398 15.966775 11.465552 14.705095
85 29 1 0.269 3.553909 19.658952 16.688727
86 29 2 0.129 4.477288 20.278326 15.623201
87 29 3 -0.398 5.171022 20.74366 14.822672
88 30 1 0.269 13.493363 15.106631 6.288018
89 30 2 0.129 13.506963 16.140567 7.429241
90 30 3 -0.398 13.51718 16.917363 8.28664
91 31 1 0.269 18.899954 2.0 9.034437
92 31 2 0.129 17.446563 2.0 9.543609
93 31 3 -0.398 16.354633 2.0 9.92615
94 32 1 0.269 3.31913 13.081927 2.50388
95 32 2 0.129 2.565744 11.745195 2.634869
96 32 3 -0.398 1.999727 10.74091 2.73328
97 33 1 0.269 12.573117 1.999979 7.168066
98 33 2 0.129 11.165693 2.00002 6.542959
99 33 3 -0.398 10.108298 2.00005 6.073317
100 34 1 0.269 14.904091 5.777574 10.903175
101 34 2 0.129 15.745391 6.925454 11.491549
102 34 3 -0.398 16.377459 7.787856 11.933593
103 35 1 0.269 19.3112 6.69427 14.432726
104 35 2 0.129 19.399182 6.161144 15.874821
105 35 3 -0.398 19.465283 5.760607 16.958264
106 36 1 0.269 8.716315 16.074448 11.515898
107 36 2 0.129 8.651509 17.57155 11.160815
108 36 3 -0.398 8.602821 18.696322 10.894042
109 37 1 0.269 20.742841 2.987155 18.257994
110 37 2 0.129 20.743303 3.883578 19.510203
111 37 3 -0.398 20.74365 4.557059 20.450986
112 38 1 0.269 15.297563 16.832068 6.414768
113 38 2 0.129 15.277301 15.58037 5.517862
114 38 3 -0.398 15.262078 14.639971 4.844017
115 39 1 0.269 8.491852 6.08236 2.413769
116 39 2 0.129 9.695101 6.029725 3.373468
117 39 3 -0.398 10.5991 5.99018 4.094489
118 40 1 0.269 2.001449 16.048551 20.74366
119 40 2 0.129 2.000623 15.584921 19.275108
120 40 3 -0.398 2.000003 15.236596 18.171786
121 41 1 0.269 8.337845 10.258397 5.507354
122 41 2 0.129 7.042575 10.77368 6.161844
123 41 3 -0.398 6.069439 11.16081 6.653563
124 42 1 0.269 2.383524 11.241224 4.631338
125 42 2 0.129 2.164629 12.522033 5.457906
126 42 3 -0.398 2.000174 13.484302 6.078906
127 43 1 0.269 3.887468 3.317875 16.876073
128 43 2 0.129 4.771187 3.320099 15.614869
129 43 3 -0.398 5.435124 3.32177 14.667328
130 44 1 0.269 15.04719 13.024447 3.396064
131 44 2 0.129 16.081032 11.925695 3.70512
132 44 3 -0.398 16.857755 11.100204 3.937314
133 45 1 0.269 14.357059 1.999943 2.087226
134 45 2 0.129 12.817866 1.999818 2.037365
135 45 3 -0.398 11.661473 1.999724 1.999904
136 46 1 0.269 4.105733 10.333412 3.952099
137 46 2 0.129 5.163472 9.498872 3.206222
138 46 3 -0.398 5.95815 8.871883 2.645847
139 47 1 0.269 7.418767 8.457 9.240196
140 47 2 0.129 7.942973 8.574224 7.796913
141 47 3 -0.398 8.336808 8.662294 6.712576
142 48 1 0.269 6.18222 2.155651 4.82979
143 48 2 0.129 5.68891 3.062099 3.686725
144 48 3 -0.398 5.318287 3.743113 2.827942
145 49 1 0.269 7.458725 6.457345 15.883842
146 49 2 0.129 7.576695 5.460467 14.715974
147 49 3 -0.398 7.665325 4.711513 13.838556
148 50 1 0.269 3.436107 17.10951 19.559318
149 50 2 0.129 4.507131 17.985394 20.235583
150 50 3 -0.398 5.311789 18.643445 20.74366
151 51 1 0.269 18.760556 14.646753 2.014237
152 51 2 0.129 17.773035 15.828431 2.007961
153 51 3 -0.398 17.031112 16.716225 2.003247
154 52 1 0.269 13.801378 20.74366 16.718781
155 52 2 0.129 12.356635 20.225273 16.843656
156 52 3 -0.398 11.271202 19.835809 16.937475
157 53 1 0.269 3.685351 2.030539 4.114371
158 53 2 0.129 2.729375 2.013145 2.90714
159 53 3 -0.398 2.011151 2.000077 2.000149
160 54 1 0.269 20.743609 3.326192 10.185138
161 54 2 0.129 19.980753 4.559813 10.702661
162 54 3 -0.398 19.40762 5.486631 11.091476
163 55 1 0.269 2.0 20.74366 15.987616
164 55 2 0.129 2.0 20.74366 17.527616
165 55 3 -0.398 2.0 20.74366 18.684616
166 56 1 0.269 20.743596 2.0 5.767872
167 56 2 0.129 20.741625 3.532632 5.918319
168 56 3 -0.398 20.740144 4.684097 6.03135
169 57 1 0.269 2.000027 13.15709 17.784391
170 57 2 0.129 2.000012 12.041551 18.846075
171 57 3 -0.398 2.0 11.203448 19.643717
172 58 1 0.269 15.676083 10.163226 6.926993
173 58 2 0.129 16.056058 8.703993 6.61417
174 58 3 -0.398 16.341533 7.607674 6.379147
175 59 1 0.269 9.195845 10.511469 20.74366
176 59 2 0.129 8.435814 11.801092 20.381965
177 59 3 -0.398 7.864803 12.769985 20.110223
178 60 1 0.269 20.712761 16.418476 2.0
179 60 2 0.129 20.730405 17.958375 2.000023
180 60 3 -0.398 20.74366 19.115299 2.000041
181 61 1 0.269 13.466132 7.967429 11.768769
182 61 2 0.129 13.100653 8.642349 13.103875
183 61 3 -0.398 12.826069 9.149415 14.106938
184 62 1 0.269 6.588141 16.849666 20.74366
185 62 2 0.129 7.568188 15.661766 20.74366
186 62 3 -0.398 8.304497 14.769298 20.74366
187 63 1 0.269 3.595535 11.69781 20.74366
188 63 2 0.129 2.693666 12.941656 20.638401
189 63 3 -0.398 2.016094 13.876156 20.55932
190 64 1 0.269 14.927921 16.662646 2.007047
191 64 2 0.129 13.453638 17.069504 2.187475
192 64 3 -0.398 12.34601 17.375176 2.323031
193 65 1 0.269 20.670422 5.148575 8.220331
194 65 2 0.129 20.712241 3.609214 8.205511
195 65 3 -0.398 20.74366 2.452694 8.194377
196 66 1 0.269 11.608221 2.008768 13.939593
197 66 2 0.129 13.148096 2.003766 13.958553
198 66 3 -0.398 14.305002 2.000008 13.972798
199 67 1 0.269 6.659913 12.59572 10.872759
200 67 2 0.129 6.78974 11.191656 11.491912
201 67 3 -0.398 6.887279 10.136785 11.957082
202 68 1 0.269 18.059681 2.001758 2.332855
203 68 2 0.129 19.346379 2.000755 3.179028
204 68 3 -0.398 20.313072 2.000001 3.814757
205 69 1 0.269 5.827497 11.599011 20.587211
206 69 2 0.129 5.831597 13.136412 20.676544
207 69 3 -0.398 5.834678 14.29146 20.74366
208 70 1 0.269 10.105576 14.331604 15.390239
209 70 2 0.129 10.624208 13.094307 16.14636
210 70 3 -0.398 11.013855 12.164728 16.714432
211 71 1 0.269 3.448435 7.689062 12.724439
212 71 2 0.129 2.621341 8.974908 12.539735
213 71 3 -0.398 1.999947 9.940962 12.400967
214 72 1 0.269 4.417715 20.74366 20.74366
215 72 2 0.129 3.895907 19.920166 19.55153
216 72 3 -0.398 3.503874 19.301476 18.655885
217 73 1 0.269 11.46167 5.960118 15.418142
218 73 2 0.129 11.540273 5.55117 16.900769
219 73 3 -0.398 11.599328 5.243929 18.014665
220 74 1 0.269 13.546069 2.0 16.118305
221 74 2 0.129 13.47371 2.0 17.656604
222 74 3 -0.398 13.419347 2.0 18.812326
223 75 1 0.269 14.067577 10.577941 14.753463
224 75 2 0.129 14.808909 10.624908 16.102471
225 75 3 -0.398 15.365871 10.660194 17.115978
226 76 1 0.269 8.158647 6.476741 18.437036
227 76 2 0.129 7.493842 7.863894 18.363267
228 76 3 -0.398 6.994375 8.90606 18.307844
229 77 1 0.269 7.266829 2.001876 6.503086
230 77 2 0.129 8.403544 2.290521 7.501167
231 77 3 -0.398 9.257556 2.507379 8.251023
232 78 1 0.269 10.793553 4.145053 7.468753
233 78 2 0.129 12.260518 3.858061 7.839225
234 78 3 -0.398 13.362646 3.642445 8.117561
235 79 1 0.269 5.911126 11.547112 4.697633
236 79 2 0.129 7.376413 11.836078 4.322089
237 79 3 -0.398 8.477281 12.053177 4.039943
238 80 1 0.269 15.272989 15.265647 12.439334
239 80 2 0.129 14.644615 13.979642 13.00761
240 80 3 -0.398 14.172519 13.013468 13.434555
241 81 1 0.269 5.582182 11.615136 13.40889
242 81 2 0.129 5.485807 10.078378 13.382714
243 81 3 -0.398 5.413401 8.923813 13.363048
244 82 1 0.269 18.300071 8.595703 1.999989
245 82 2 0.129 19.642097 9.351061 1.999999
246 82 3 -0.398 20.65036 9.91856 2.000006
247 83 1 0.269 7.91875 19.965841 3.817001
248 83 2 0.129 7.955798 18.828375 2.779504
249 83 3 -0.398 7.983633 17.973799 2.000035
250 84 1 0.269 15.532065 18.792966 5.920413
251 84 2 0.129 15.17809 18.711792 7.41698
252 84 3 -0.398 14.912149 18.650806 8.541349
253 85 1 0.269 16.730726 15.15558 20.743655
254 85 2 0.129 15.375592 14.424 20.743655
255 85 3 -0.398 14.357481 13.874365 20.743655
256 86 1 0.269 20.400474 14.023295 20.74367
257 86 2 0.129 19.935954 12.555023 20.74367
258 86 3 -0.398 19.586961 11.451913 20.74367
259 87 1 0.269 6.366754 14.648194 7.038166
260 87 2 0.129 6.742638 15.00285 5.587465
261 87 3 -0.398 7.02504 15.269301 4.497556
262 88 1 0.269 20.74366 5.91503 18.755424
263 88 2 0.129 20.74366 7.453964 18.698136
264 88 3 -0.398 20.74366 8.610163 18.655096
265 89 1 0.269 2.0 17.994175 18.484626
266 89 2 0.129 2.245625 17.198421 17.189233
267 89 3 -0.398 2.430163 16.600573 16.216005
268 90 1 0.269 6.885037 20.591999 5.571672
269 90 2 0.129 5.733748 19.626091 5.908057
270 90 3 -0.398 4.868786 18.900405 6.160782
271 91 1 0.269 8.301731 20.307258 7.141515
272 91 2 0.129 8.406799 18.830323 7.564865
273 91 3 -0.398 8.485736 17.720704 7.882928
274 92 1 0.269 8.232812 8.871934 16.23563
275 92 2 0.129 8.989628 7.565372 16.538493
276 92 3 -0.398 9.558222 6.583753 16.766034
277 93 1 0.269 5.429804 5.026094 20.743646
278 93 2 0.129 4.589949 3.735263 20.743433
279 93 3 -0.398 3.958967 2.765464 20.743272
280 94 1 0.269 18.226102 8.165525 3.95178
281 94 2 0.129 16.89677 8.885666 4.244826
282 94 3 -0.398 15.898046 9.426706 4.464991
283 95 1 0.269 12.010879 9.671932 2.000055
284 95 2 0.129 13.113674 9.819544 3.064786
285 95 3 -0.398 13.942203 9.930444 3.864717
286 96 1 0.269 20.743659 18.828392 10.64996
287 96 2 0.129 19.281814 19.312493 10.634043
288 96 3 -0.398 18.183531 19.676198 10.622085
289 97 1 0.269 15.859654 18.121454 16.774206
290 97 2 0.129 16.29918 16.645527 16.781547
291 97 3 -0.398 16.629395 15.536664 16.787063
292 98 1 0.269 2.000001 3.76358 17.888921
293 98 2 0.129 2.000004 2.756567 19.05405
294 98 3 -0.398 2.000006 2.0 19.929409
295 99 1 0.269 13.599461 5.362387 19.126745
296 99 2 0.129 15.109539 5.636754 19.000303
297 99 3 -0.398 16.244058 5.842886 18.905308
298 100 1 0.269 20.74173 18.055675 7.325182
299 100 2 0.129 19.921427 17.118417 6.419504
300 100 3 -0.398 19.305135 16.414257 5.73907
301 101 1 0.269 5.827667 6.453377 10.452962
302 101 2 0.129 5.692113 4.974635 10.04486
303 101 3 -0.398 5.590271 3.863658 9.738253
304 102 1 0.269 18.209752 20.743603 3.546247
305 102 2 0.129 17.297207 19.647898 2.964616
306 102 3 -0.398 16.611614 18.824696 2.527638
307 103 1 0.269 13.209509 15.817697 14.053366
308 103 2 0.129 12.782413 16.576985 15.323275
309 103 3 -0.398 12.461536 17.147437 16.277357
310 104 1 0.269 17.763747 5.089643 14.8151
311 104 2 0.129 17.670843 5.61097 13.369006
312 104 3 -0.398 17.601044 6.002642 12.282558
313 105 1 0.269 17.857574 17.562517 14.89194
314 105 2 0.129 17.291462 17.191979 13.508531
315 105 3 -0.398 16.866143 16.913595 12.469178
316 106 1 0.269 13.158751 13.483379 2.002293
317 106 2 0.129 12.540902 14.064883 3.287484
318 106 3 -0.398 12.076712 14.501766 4.253046
319 107 1 0.269 11.027542 7.772418 12.987988
320 107 2 0.129 11.247957 7.907288 14.506154
321 107 3 -0.398 11.413554 8.008616 15.64675
322 108 1 0.269 3.13211 7.612424 10.725241
323 108 2 0.129 2.56621 7.907882 9.32379
324 108 3 -0.398 2.14105 8.129858 8.270883
325 109 1 0.269 3.541725 20.73569 9.676782
326 109 2 0.129 3.987541 20.737586 8.202725
327 109 3 -0.398 4.322482 20.739011 7.095268
328 110 1 0.269 17.390983 17.216121 18.497872
329 110 2 0.129 18.619523 18.063999 18.876543
330 110 3 -0.398 19.542524 18.701008 19.161038
331 111 1 0.269 16.456133 2.0 14.709975
332 111 2 0.129 17.163943 2.006952 16.077657
333 111 3 -0.398 17.69572 2.012176 17.105196
334 112 1 0.269 12.268717 8.49173 10.229742
335 112 2 0.129 12.724546 7.021951 10.169995
336 112 3 -0.398 13.067009 5.917708 10.125107
337 113 1 0.269 9.64903 4.071743 9.446518
338 113 2 0.129 10.396702 3.858763 10.775888
339 113 3 -0.398 10.958428 3.698751 11.774642
340 114 1 0.269 5.059925 20.742909 18.120957
341 114 2 0.129 5.906057 20.743165 19.407682
342 114 3 -0.398 6.541755 20.743357 20.374397
343 115 1 0.269 7.912863 14.175552 16.658558
344 115 2 0.129 9.164437 14.404567 17.52615
345 115 3 -0.398 10.104742 14.576626 18.17797
346 116 1 0.269 2.992219 2.052866 7.559069
347 116 2 0.129 4.236645 2.022393 8.465753
348 116 3 -0.398 5.171581 1.999498 9.146943
349 117 1 0.269 15.857938 12.424136 10.590487
350 117 2 0.129 14.819687 11.828314 11.559317
351 117 3 -0.398 14.039651 11.380674 12.287198
352 118 1 0.269 3.232936 7.384337 3.428182
353 118 2 0.129 4.001085 6.327521 2.612898
354 118 3 -0.398 4.578194 5.533536 2.000376
355 119 1 0.269 20.744109 13.052996 18.983408
356 119 2 0.129 20.324013 11.575391 18.874757
357 119 3 -0.398 20.008396 10.465269 18.793129
358 120 1 0.269 17.179002 9.793766 8.193796
359 120 2 0.129 17.183985 11.243615 7.674648
360 120 3 -0.398 17.187729 12.332884 7.284613
361 121 1 0.269 14.865708 13.330598 6.614388
362 121 2 0.129 16.129227 13.091984 5.766932
363 121 3 -0.398 17.078508 12.912713 5.13024
364 122 1 0.269 10.536699 3.896287 20.040414
365 122 2 0.129 10.257496 3.852014 18.526583
366 122 3 -0.398 10.047731 3.818751 17.389243
367 123 1 0.269 9.227313 20.741255 2.000001
368 123 2 0.129 9.953219 19.383124 2.011778
369 123 3 -0.398 10.498591 18.362761 2.020626
370 124 1 0.269 14.20864 4.707272 2.000038
371 124 2 0.129 15.087558 5.971829 2.000065
372 124 3 -0.398 15.747887 6.921889 2.000085
373 125 1 0.269 9.793997 9.221602 9.17603
374 125 2 0.129 10.911707 8.237789 8.783046
375 125 3 -0.398 11.751442 7.498652 8.487798
376 126 1 0.269 20.666042 9.83215 9.672708
377 126 2 0.129 20.621039 11.346024 9.39385
378 126 3 -0.398 20.587229 12.483395 9.184343
379 127 1 0.269 9.249475 18.467362 14.999438
380 127 2 0.129 10.748221 18.817425 14.946383
381 127 3 -0.398 11.874228 19.080427 14.906523
382 128 1 0.269 19.460632 18.881044 8.621008
383 128 2 0.129 18.201945 19.131717 7.76985
384 128 3 -0.398 17.256295 19.320047 7.130376
385 129 1 0.269 15.039757 18.698295 18.760976
386 129 2 0.129 15.238156 17.174848 18.867497
387 129 3 -0.398 15.387213 16.030284 18.947527
388 130 1 0.269 9.416999 6.932856 9.033595
389 130 2 0.129 10.608619 5.957816 9.064227
390 130 3 -0.398 11.503881 5.22527 9.087241
391 131 1 0.269 2.0 3.939994 13.800419
392 131 2 0.129 2.0 3.969042 12.260693
393 131 3 -0.398 2.0 3.990865 11.103899
394 132 1 0.269 14.828535 7.473833 13.339604
395 132 2 0.129 14.006818 7.247768 14.622287
396 132 3 -0.398 13.389463 7.077925 15.585965
397 133 1 0.269 11.912947 4.486519 3.983831
398 133 2 0.129 13.2449 5.115229 4.433526
399 133 3 -0.398 14.245594 5.587578 4.771382
400 134 1 0.269 9.990417 18.946783 9.082643
401 134 2 0.129 8.848491 19.972809 9.204606
402 134 3 -0.398 7.990562 20.74366 9.296237
403 135 1 0.269 10.556963 2.00014 15.838944
404 135 2 0.129 9.902044 3.203205 15.135158
405 135 3 -0.398 9.410004 4.107066 14.606404
406 136 1 0.269 18.459212 8.721036 15.178819
407 136 2 0.129 19.763643 9.506144 14.947161
408 136 3 -0.398 20.74366 10.095995 14.773116
409 137 1 0.269 2.10431 15.691834 2.028385
410 137 2 0.129 2.044016 14.565365 3.076732
411 137 3 -0.398 1.998717 13.71905 3.864354
412 138 1 0.269 15.288666 9.903278 8.871799
413 138 2 0.129 15.488872 11.422729 8.720844
414 138 3 -0.398 15.639286 12.56429 8.607432
415 139 1 0.269 9.317775 5.655798 20.740687
416 139 2 0.129 8.508917 4.735116 19.808113
417 139 3 -0.398 7.901223 4.043409 19.107472
418 140 1 0.269 18.062875 16.929044 8.236333
419 140 2 0.129 18.629165 15.651294 7.589596
420 140 3 -0.398 19.054619 14.691322 7.103703
421 141 1 0.269 15.738676 19.428294 20.743648
422 141 2 0.129 14.368533 18.725241 20.738906
423 141 3 -0.398 13.339146 18.197038 20.735343
424 142 1 0.269 7.855852 4.731735 10.041478
425 142 2 0.129 7.19334 5.218152 11.343813
426 142 3 -0.398 6.695595 5.583597 12.322255
427 143 1 0.269 20.74311 18.034414 17.706873
428 143 2 0.129 20.743427 16.683194 18.445658
429 143 3 -0.398 20.743666 15.668023 19.000706
430 144 1 0.269 7.511281 11.077674 13.608355
431 144 2 0.129 8.598814 11.004666 12.520447
432 144 3 -0.398 9.415876 10.949816 11.703103
433 145 1 0.269 3.76637 9.657061 19.333672
434 145 2 0.129 3.933496 8.253941 18.721362
435 145 3 -0.398 4.059058 7.199779 18.261335
436 146 1 0.269 11.252465 18.810176 20.73262
437 146 2 0.129 9.964669 17.965698 20.738924
438 146 3 -0.398 8.99715 17.331243 20.74366
439 147 1 0.269 4.362758 19.04124 10.616325
440 147 2 0.129 3.985687 18.862113 9.133986
441 147 3 -0.398 3.702393 18.727535 8.020306
442 148 1 0.269 3.769877 4.663077 3.697511
443 148 2 0.129 3.840644 5.839405 4.688896
444 148 3 -0.398 3.89381 6.723179 5.433722
445 149 1 0.269 2.100959 20.74366 20.74366
446 149 2 0.129 2.043311 19.20474 20.743652
447 149 3 -0.398 2.0 18.048551 20.743645
448 150 1 0.269 9.112349 2.0 20.74366
449 150 2 0.129 7.745841 2.71011 20.743565
450 150 3 -0.398 6.719185 3.243615 20.743494
451 151 1 0.269 15.873559 16.779446 10.406011
452 151 2 0.129 14.436021 16.258384 10.222767
453 151 3 -0.398 13.356 15.866911 10.085096
454 152 1 0.269 18.899482 10.908785 10.31938
455 152 2 0.129 18.738135 9.395754 10.55666
456 152 3 -0.398 18.616914 8.259015 10.734928
457 153 1 0.269 9.35527 12.424571 18.015987
458 153 2 0.129 9.000002 10.959771 18.331815
459 153 3 -0.398 8.733089 9.859269 18.569096
460 154 1 0.269 12.138928 5.320414 11.800498
461 154 2 0.129 11.176743 6.401833 11.274826
462 154 3 -0.398 10.453854 7.214302 10.879889
463 155 1 0.269 12.054286 14.453752 14.950647
464 155 2 0.129 12.040529 14.463815 16.490553
465 155 3 -0.398 12.030193 14.471375 17.647482
466 156 1 0.269 3.771492 9.278306 16.773084
467 156 2 0.129 2.759962 8.12225 16.663807
468 156 3 -0.398 2.0 7.253707 16.581706
469 157 1 0.269 12.206956 19.338833 18.763836
470 157 2 0.129 13.039065 20.13954 19.78269
471 157 3 -0.398 13.664228 20.74111 20.548153
472 158 1 0.269 5.900664 5.687207 18.915743
473 158 2 0.129 5.92151 6.659028 17.721285
474 158 3 -0.398 5.937171 7.389155 16.823891
475 159 1 0.269 12.541254 13.470044 12.282469
476 159 2 0.129 11.488873 14.410619 12.898433
477 159 3 -0.398 10.69822 15.117271 13.361207
478 160 1 0.269 16.47321 12.894254 1.999807
479 160 2 0.129 17.203503 11.538426 2.001603
480 160 3 -0.398 17.752172 10.519795 2.002953
481 161 1 0.269 5.385754 13.745881 12.159177
482 161 2 0.129 6.40588 14.530021 11.312969
483 161 3 -0.398 7.172299 15.119144 10.677214
484 162 1 0.269 8.382529 6.333944 5.663193
485 162 2 0.129 8.214346 5.320687 4.515751
486 162 3 -0.398 8.087991 4.559428 3.653678
487 163 1 0.269 8.786098 8.818596 4.158108
488 163 2 0.129 8.072993 8.231512 2.925868
489 163 3 -0.398 7.537237 7.790437 2.000089
490 164 1 0.269 15.209519 14.447289 1.999939
491 164 2 0.129 14.366638 15.094633 3.114433
492 164 3 -0.398 13.733383 15.580983 3.951751
493 165 1 0.269 18.879431 4.059694 6.422737
494 165 2 0.129 18.047863 2.883602 6.967624
495 165 3 -0.398 17.423107 2.000005 7.376997
496 166 1 0.269 8.462172 8.3545 13.536457
497 166 2 0.129 7.680741 8.318462 12.209933
498 166 3 -0.398 7.093653 8.291387 11.213317
499 167 1 0.269 18.215372 11.184066 19.312937
500 167 2 0.129 16.697902 11.338556 19.100765
501 167 3 -0.398 15.557829 11.454624 18.941361
502 168 1 0.269 2.773615 14.456691 16.209478
503 168 2 0.129 3.740535 15.043764 15.164485
504 168 3 -0.398 4.466981 15.484832 14.379384
505 169 1 0.269 6.933261 19.51056 14.789681
506 169 2 0.129 6.673179 18.002985 14.613119
507 169 3 -0.398 6.47778 16.870346 14.480468
508 170 1 0.269 20.588802 6.183495 12.737854
509 170 2 0.129 20.675081 7.337975 11.722309
510 170 3 -0.398 20.739903 8.205334 10.959331
511 171 1 0.269 5.668333 10.108454 17.253344
512 171 2 0.129 4.9113 11.069851 18.188341
513 171 3 -0.398 4.342542 11.792147 18.890802
514 172 1 0.269 10.334658 15.410418 20.743518
515 172 2 0.129 10.291551 13.983389 20.16617
516 172 3 -0.398 10.259165 12.911264 19.73241
517 173 1 0.269 5.298881 18.998378 13.201798
518 173 2 0.129 4.439164 17.767598 12.858776
519 173 3 -0.398 3.793259 16.842913 12.601063
520 174 1 0.269 15.367865 8.831173 14.793924
521 174 2 0.129 16.525319 7.816546 14.843235
522 174 3 -0.398 17.394914 7.054259 14.880283
523 175 1 0.269 14.84904 2.036988 11.566691
524 175 2 0.129 15.633448 3.357748 11.45762
525 175 3 -0.398 16.222773 4.350034 11.375675
526 176 1 0.269 18.765566 18.673542 2.0
527 176 2 0.129 18.893982 17.4416 2.915112
528 176 3 -0.398 18.990461 16.516044 3.602634
529 177 1 0.269 3.867782 9.557397 5.780009
530 177 2 0.129 4.545437 8.524918 4.860025
531 177 3 -0.398 5.054558 7.749218 4.168842
532 178 1 0.269 7.621367 2.946553 14.875725
533 178 2 0.129 7.848201 3.875416 16.082937
534 178 3 -0.398 8.018622 4.573269 16.989914
535 179 1 0.269 4.380319 19.044965 3.723777
536 179 2 0.129 5.106761 17.761498 4.167165
537 179 3 -0.398 5.652537 16.79723 4.500281
538 180 1 0.269 18.96335 5.289455 4.750401
539 180 2 0.129 18.789842 5.998453 3.394371
540 180 3 -0.398 18.659485 6.531123 2.375588
541 181 1 0.269 20.743583 10.677662 3.847996
542 181 2 0.129 20.743642 12.216472 3.908539
543 181 3 -0.398 20.743687 13.372577 3.954025
544 182 1 0.269 13.429937 18.166174 17.700163
545 182 2 0.129 13.742654 18.783782 16.324529
546 182 3 -0.398 13.977599 19.247791 15.291018
547 183 1 0.269 13.818699 4.041769 14.494128
548 183 2 0.129 13.872053 4.662208 15.902606
549 183 3 -0.398 13.912138 5.128343 16.960793
550 184 1 0.269 6.626584 2.941021 8.148697
551 184 2 0.129 7.508572 2.849991 9.407828
552 184 3 -0.398 8.171209 2.7816 10.353811
553 185 1 0.269 10.653703 7.565423 20.743651
554 185 2 0.129 12.188334 7.693744 20.737289
555 185 3 -0.398 13.341301 7.79015 20.732508
556 186 1 0.269 12.057658 11.999675 9.322104
557 186 2 0.129 12.073675 13.368223 10.028092
558 186 3 -0.398 12.085709 14.396412 10.558501
559 187 1 0.269 7.299983 1.999935 12.975618
560 187 2 0.129 5.777283 2.000071 13.205804
561 187 3 -0.398 4.633281 2.000174 13.378743
562 188 1 0.269 11.837048 3.973971 14.232314
563 188 2 0.129 11.991004 3.715147 15.742581
564 188 3 -0.398 12.106671 3.520693 16.877243
565 189 1 0.269 10.700858 20.74366 18.727563
566 189 2 0.129 9.160919 20.74366 18.741294
567 189 3 -0.398 8.003965 20.74366 18.75161
568 190 1 0.269 18.815414 10.759495 16.53895
569 190 2 0.129 19.022496 9.306805 17.006291
570 190 3 -0.398 19.178077 8.2154 17.357404
571 191 1 0.269 7.198721 13.15525 12.783459
572 191 2 0.129 8.64231 13.134186 13.319375
573 191 3 -0.398 9.726877 13.118361 13.722007
574 192 1 0.269 10.90832 19.272989 10.979476
575 192 2 0.129 12.258449 19.009035 11.671633
576 192 3 -0.398 13.272799 18.810727 12.191649
577 193 1 0.269 18.027944 3.791133 10.530269
578 193 2 0.129 17.627774 2.768391 11.609835
579 193 3 -0.398 17.327126 2.000006 12.420911
580 194 1 0.269 8.739951 8.51488 20.273938
581 194 2 0.129 7.844221 7.291226 20.542151
582 194 3 -0.398 7.171261 6.371897 20.74366
583 195 1 0.269 9.618037 14.504463 7.761392
584 195 2 0.129 8.504002 15.454326 7.283598
585 195 3 -0.398 7.667029 16.167956 6.924632
586 196 1 0.269 2.213585 9.395067 20.74366
587 196 2 0.129 3.169087 8.187336 20.74366
588 196 3 -0.398 3.886955 7.279969 20.74366
589 197 1 0.269 18.635703 20.74366 6.300499
590 197 2 0.129 17.30629 20.74366 5.523157
591 197 3 -0.398 16.307504 20.74366 4.93914
592 198 1 0.269 17.947094 6.865452 5.445757
593 198 2 0.129 16.943041 6.255222 4.450219
594 198 3 -0.398 16.188697 5.796756 3.702272
595 199 1 0.269 2.087505 20.701808 6.796908
596 199 2 0.129 2.037536 20.039806 8.18646
597 199 3 -0.398 1.999994 19.542445 9.230429
598 200 1 0.269 16.978255 4.412396 5.49153
599 200 2 0.129 16.312289 3.034906 5.666492
600 200 3 -0.398 15.81195 2.0 5.797941
601 201 1 0.269 20.679142 16.646758 20.74366
602 201 2 0.129 20.715982 18.185592 20.696402
603 201 3 -0.398 20.74366 19.341715 20.660897
604 202 1 0.269 18.860121 7.785501 20.622734
605 202 2 0.129 18.026068 9.078245 20.691786
606 202 3 -0.398 17.399444 10.049482 20.743664
607 203 1 0.269 14.326876 15.849925 16.658426
608 203 2 0.129 14.007409 14.511074 17.349091
609 203 3 -0.398 13.767394 13.505197 17.867987
610 204 1 0.269 5.328825 15.127909 3.447372
611 204 2 0.129 4.332389 16.249995 3.101484
612 204 3 -0.398 3.583767 17.093016 2.841618
613 205 1 0.269 14.191633 20.741246 9.215615
614 205 2 0.129 14.6084 20.742599 7.733082
615 205 3 -0.398 14.921517 20.743615 6.619257
616 206 1 0.269 20.652729 8.15913 4.740054
617 206 2 0.129 20.038574 7.183061 5.760693
618 206 3 -0.398 19.577161 6.449742 6.527498
619 207 1 0.269 3.560927 11.179565 9.120944
620 207 2 0.129 2.669614 12.277121 8.51059
621 207 3 -0.398 1.999971 13.101713 8.052032
622 208 1 0.269 6.507107 20.74366 13.097013
623 208 2 0.129 7.714147 20.74366 12.140637
624 208 3 -0.398 8.620995 20.74366 11.422114
625 209 1 0.269 10.183896 9.089642 11.521431
626 209 2 0.129 11.171079 9.972735 12.307061
627 209 3 -0.398 11.912749 10.636202 12.897304
628 210 1 0.269 15.058063 11.407509 2.033857
629 210 2 0.129 15.810329 10.070705 2.170423
630 210 3 -0.398 16.375505 9.066366 2.273026
631 211 1 0.269 2.0 14.171164 14.242497
632 211 2 0.129 2.0 15.707569 14.137328
633 211 3 -0.398 2.0 16.861867 14.058315
634 212 1 0.269 1.999964 9.929382 9.142516
635 212 2 0.129 2.151325 10.493293 7.717492
636 212 3 -0.398 2.265042 10.91696 6.646874
637 213 1 0.269 16.938678 8.352835 16.870473
638 213 2 0.129 15.433277 8.668617 16.945621
639 213 3 -0.398 14.302271 8.905864 17.00208
640 214 1 0.269 4.275627 17.75866 17.643898
641 214 2 0.129 5.535276 18.609498 17.890799
642 214 3 -0.398 6.481649 19.248731 18.076295
643 215 1 0.269 18.591569 9.847647 5.869263
644 215 2 0.129 18.73056 10.615483 4.541592
645 215 3 -0.398 18.834984 11.192357 3.544115
646 216 1 0.269 16.782338 15.101921 7.053457
647 216 2 0.129 17.143602 14.119288 8.182846
648 216 3 -0.398 17.41502 13.381036 9.031354
649 217 1 0.269 9.729116 4.546423 2.029617
650 217 2 0.129 9.449777 3.092403 2.45317
651 217 3 -0.398 9.23991 2.0 2.771384
652 218 1 0.269 15.53012 9.347883 20.627988
653 218 2 0.129 14.287899 9.544169 19.739192
654 218 3 -0.398 13.35462 9.691638 19.07144
655 219 1 0.269 3.337203 17.305396 10.7079
656 219 2 0.129 2.573655 18.223867 11.680014
657 219 3 -0.398 2.000002 18.913913 12.410362
658 220 1 0.269 13.564189 6.992047 17.597612
659 220 2 0.129 14.746546 7.519501 18.431533
660 220 3 -0.398 15.63485 7.915777 19.058056
661 221 1 0.269 20.743644 10.832901 7.46151
662 221 2 0.129 20.713817 12.114927 6.608797
663 221 3 -0.398 20.691408 13.078112 5.968155
664 222 1 0.269 12.226112 10.738358 15.520321
665 222 2 0.129 12.880942 11.063749 16.875651
666 222 3 -0.398 13.372915 11.308214 17.893908
667 223 1 0.269 13.450524 2.000038 5.307073
668 223 2 0.129 14.122022 3.165848 6.056459
669 223 3 -0.398 14.626517 4.041719 6.619472
670 224 1 0.269 3.159382 9.970594 10.771629
671 224 2 0.129 3.526936 11.074125 11.780948
672 224 3 -0.398 3.803078 11.903206 12.539248
673 225 1 0.269 14.949382 17.536935 14.932397
674 225 2 0.129 14.898101 17.448758 13.395779
675 225 3 -0.398 14.859574 17.382512 12.241319
676 226 1 0.269 14.374029 8.689427 1.99972
677 226 2 0.129 13.64064 7.347808 2.183567
678 226 3 -0.398 13.089647 6.339851 2.321691