LAMMPS (16 Mar 2018)
OMP_NUM_THREADS environment is not set. Defaulting to 1 thread. (../comm.cpp:90)
  using 1 OpenMP thread(s) per MPI task
# 3d Lennard-Jones melt

units       lj
atom_style  atomic

lattice     fcc 0.8442
Lattice spacing in x,y,z = 1.6796 1.6796 1.6796
region      box block 0 10 0 10 0 10
create_box  1 box
Created orthogonal box = (0 0 0) to (16.796 16.796 16.796)
  1 by 1 by 2 MPI processor grid
create_atoms    1 box
Created 4000 atoms
  Time spent = 0.000528097 secs
mass        1 1.0

velocity    all create 3.0 87287

pair_style  lj/cut 2.5
pair_coeff  1 1 1.0 1.0 2.5

neighbor    0.3 bin
neigh_modify    every 20 delay 0 check no

fix     1 all nve

#dump       id all atom 50 dump.melt

#dump       2 all image 25 image.*.jpg type type #       axes yes 0.8 0.02 view 60 -30
#dump_modify    2 pad 3

#dump       3 all movie 25 movie.mpg type type #       axes yes 0.8 0.02 view 60 -30
#dump_modify    3 pad 3

thermo      1

run 10
Neighbor list info ...
  update every 20 steps, delay 0 steps, check no
  max neighbors/atom: 2000, page size: 100000
  master list distance cutoff = 2.8
  ghost atom cutoff = 2.8
  binsize = 1.4, bins = 12 12 12
  1 neighbor lists, perpetual/occasional/extra = 1 0 0
  (1) pair lj/cut, perpetual
      attributes: half, newton on
      pair build: half/bin/atomonly/newton
      stencil: half/bin/3d/newton
      bin: standard
Per MPI rank memory allocation (min/avg/max) = 2.804 | 2.804 | 2.804 Mbytes
Step Temp E_pair E_mol TotEng Press 
       0            3   -6.7733681            0   -2.2744931   -3.7033504 
       1    2.9951987   -6.7662407            0   -2.2745659   -3.6588262 
       2    2.9802109   -6.7439895            0   -2.2747908   -3.5226206 
       3    2.9532502   -6.7039491            0   -2.2751813   -3.2867189 
       4    2.9112587   -6.6412126            0   -2.2754163   -2.9370172 
       5    2.8498812   -6.5487251            0    -2.274972   -2.4537522 
       6    2.7636568   -6.4191689            0   -2.2747202   -1.8155961 
       7    2.6467777   -6.2451068            0   -2.2759327   -1.0023218 
       8    2.4951145   -6.0194029            0   -2.2776669 -0.0006588972 
       9    2.3100696    -5.742567            0   -2.2783289    1.1746157 
      10    2.1031859   -5.4317227            0   -2.2777326    2.4556252 
Loop time of 0.0171114 on 2 procs for 10 steps with 4000 atoms

Performance: 252462.966 tau/day, 584.405 timesteps/s
692.4% CPU use with 2 MPI tasks x 1 OpenMP threads

MPI task timing breakdown:
Section |  min time  |  avg time  |  max time  |%varavg| %total
---------------------------------------------------------------
Pair    | 0.015758   | 0.015872   | 0.015986   |   0.1 | 92.76
Neigh   | 0          | 0          | 0          |   0.0 |  0.00
Comm    | 0.00054073 | 0.00074315 | 0.00094557 |   0.0 |  4.34
Output  | 0.00013328 | 0.00022364 | 0.000314   |   0.0 |  1.31
Modify  | 0.00018835 | 0.0001905  | 0.00019264 |   0.0 |  1.11
Other   |            | 8.225e-05  |            |       |  0.48

Nlocal:    2000 ave 2000 max 2000 min
Histogram: 2 0 0 0 0 0 0 0 0 0
Nghost:    4196 ave 4196 max 4196 min
Histogram: 2 0 0 0 0 0 0 0 0 0
Neighs:    78000 ave 78000 max 78000 min
Histogram: 2 0 0 0 0 0 0 0 0 0

Total # of neighbors = 156000
Ave neighs/atom = 39
Neighbor list builds = 0
Dangerous builds not checked
print "$(pe)"
-5.4317227345533298788
Total wall time: 0:00:00
