LAMMPS Description

15 atoms
10 bonds
5 angles
0 dihedrals
0 impropers

3 atom types
1 bond types
1 angle types

0.0 5.27833595989 xlo xhi
0.0 5.27833595989  ylo yhi
0.0 5.27833595989  zlo zhi

Masses

1 15.994
2 1.008
3 16.04

Atoms

1 1 1 -0.8476 3.928191 1.685614 1.825109
2 1 2 0.4238 3.218925 1.752339 1.123249
3 1 2 0.4238 3.636559 1.042874 2.533595
4 2 1 -0.8476 3.500971 2.846002 3.360721
5 2 2 0.4238 3.479097 2.198645 4.122671
6 2 2 0.4238 3.758588 3.750961 3.699543
7 3 1 -0.8476 1.898774 1.982872 2.596417
8 3 2 0.4238 1.840652 1.335844 3.356743
9 3 2 0.4238 1.370677 1.635027 1.82167
10 4 1 -0.8476 2.755026 3.856942 1.827837
11 4 2 0.4238 2.107156 3.394759 1.222222
12 4 2 0.4238 3.689194 3.634889 1.548303
13 5 1 -0.8476 1.786729 3.850581 3.544315
14 5 2 0.4238 1.061486 3.747314 2.863525
15 5 2 0.4238 1.719099 3.11425 4.217634

Bonds

1 1 1 2
2 1 1 3
3 1 4 5
4 1 4 6
5 1 7 8
6 1 7 9
7 1 10 11
8 1 10 12
9 1 13 14
10 1 13 15

Angles

1 1 2 1 3
2 1 5 4 6
3 1 8 7 9
4 1 11 10 12
5 1 14 13 15
