Data file with components acn_maroncelli co2_epm2 pclo4_eilmes li_eilmes 

1545 atoms
1030 bonds
519 angles
0 dihedrals
0 impropers

8 atom types
4 bond types
3 angle types
0 dihedral types
0 improper types

0.0   35.56 xlo xhi
0.0   35.56 ylo yhi
0.0   35.56 zlo zhi

Masses

1 15.035
2 12.011
3 14.007
4 15.999
5 12.011
6 35.453
7 15.999
8 6.941

Atoms

1 1 1 0.269 27.33897 32.239724 15.547651
2 1 2 0.129 28.415803 31.532106 14.861132
3 1 3 -0.398 29.278744 30.965043 14.310976
4 2 1 0.269 5.323183 23.592925 15.609453
5 2 2 0.129 6.692684 23.459828 16.097667
6 2 3 -0.398 7.790161 23.353167 16.488906
7 3 1 0.269 13.087566 22.028386 22.457123
8 3 2 0.129 11.879337 21.451294 21.875103
9 3 3 -0.398 10.911098 20.988831 21.408689
10 4 1 0.269 25.021764 13.415132 12.13058
11 4 2 0.129 25.773388 14.147427 13.145669
12 4 3 -0.398 26.375717 14.734265 13.959131
13 5 1 0.269 14.956726 32.772332 4.363458
14 5 2 0.129 15.304234 32.23394 3.051599
15 5 3 -0.398 15.582717 31.80249 2.000315
16 6 1 0.269 7.134322 18.355256 11.810962
17 6 2 0.129 7.562618 16.959738 11.837298
18 6 3 -0.398 7.905843 15.841413 11.858404
19 7 1 0.269 11.063646 14.115669 6.883664
20 7 2 0.129 11.711474 14.852523 7.964851
21 7 3 -0.398 12.230623 15.443015 8.831282
22 8 1 0.269 18.789232 4.061297 8.379875
23 8 2 0.129 19.327771 5.414653 8.479892
24 8 3 -0.398 19.75934 6.499191 8.560041
25 9 1 0.269 27.726802 12.793418 10.218859
26 9 2 0.129 27.708529 14.145469 10.769517
27 9 3 -0.398 27.693885 15.228962 11.210797
28 10 1 0.269 29.915014 23.6571 6.927827
29 10 2 0.129 29.267189 22.348859 6.907155
30 10 3 -0.398 28.748041 21.300474 6.89059
31 11 1 0.269 17.173553 30.394115 21.088705
32 11 2 0.129 16.359385 29.709301 22.088584
33 11 3 -0.398 15.706935 29.160512 22.889858
34 12 1 0.269 11.047002 17.984915 11.973806
35 12 2 0.129 11.520464 18.512685 13.250087
36 12 3 -0.398 11.899883 18.935624 14.272859
37 13 1 0.269 8.070048 2.244966 28.355792
38 13 2 0.129 7.317649 2.395666 27.113703
39 13 3 -0.398 6.714698 2.516433 26.118331
40 14 1 0.269 20.92147 13.247714 31.070229
41 14 2 0.129 22.180978 12.527022 30.909472
42 14 3 -0.398 23.190309 11.949481 30.780646
43 15 1 0.269 32.583107 9.528335 18.332482
44 15 2 0.129 32.533362 9.259414 16.898324
45 15 3 -0.398 32.493498 9.04391 15.749034
46 16 1 0.269 12.585942 9.941621 19.413304
47 16 2 0.129 14.045458 9.905792 19.402036
48 16 3 -0.398 15.215071 9.877079 19.393006
49 17 1 0.269 18.727015 21.803442 17.954522
50 17 2 0.129 19.172626 20.413272 17.975951
51 17 3 -0.398 19.529725 19.299232 17.993124
52 18 1 0.269 27.307812 28.496249 32.069821
53 18 2 0.129 27.894695 29.808165 32.326816
54 18 3 -0.398 28.365004 30.859494 32.532764
55 19 1 0.269 32.968868 20.58192 2.09738
56 19 2 0.129 32.983271 19.122722 2.051178
57 19 3 -0.398 32.994813 17.953365 2.014153
58 20 1 0.269 31.385009 19.384732 25.864139
59 20 2 0.129 32.277829 18.896164 24.817346
60 20 3 -0.398 32.993307 18.50464 23.978479
61 21 1 0.269 4.62647 12.586576 10.20089
62 21 2 0.129 4.270006 11.171929 10.258388
63 21 3 -0.398 3.984346 10.038273 10.304464
64 22 1 0.269 29.972258 30.715938 28.480244
65 22 2 0.129 30.733362 31.961828 28.471344
66 22 3 -0.398 31.343288 32.960246 28.464212
67 23 1 0.269 9.032798 13.022195 25.672709
68 23 2 0.129 9.828501 14.006755 24.945318
69 23 3 -0.398 10.466153 14.795752 24.36241
70 24 1 0.269 14.769407 21.291787 4.089137
71 24 2 0.129 15.711207 22.400587 4.212323
72 24 3 -0.398 16.465937 23.289147 4.31104
73 25 1 0.269 19.454061 26.925275 24.901761
74 25 2 0.129 18.489831 27.917572 24.435706
75 25 3 -0.398 17.717126 28.71277 24.062225
76 26 1 0.269 29.133231 18.020323 22.955927
77 26 2 0.129 28.456808 18.819625 23.97336
78 26 3 -0.398 27.914743 19.460161 24.788699
79 27 1 0.269 22.548101 29.375911 2.000312
80 27 2 0.129 22.437119 27.920282 2.02095
81 27 3 -0.398 22.348181 26.753784 2.037488
82 28 1 0.269 19.474272 11.63495 6.587549
83 28 2 0.129 18.366739 11.156166 5.765518
84 28 3 -0.398 17.479195 10.772482 5.106766
85 29 1 0.269 3.771345 22.498324 13.664947
86 29 2 0.129 3.841328 23.914577 14.012695
87 29 3 -0.398 3.897411 25.04952 14.29137
88 30 1 0.269 9.811084 8.90509 11.261751
89 30 2 0.129 9.881839 9.884136 12.34252
90 30 3 -0.398 9.938541 10.668714 13.208616
91 31 1 0.269 23.310086 6.699363 20.896559
92 31 2 0.129 24.110972 7.672541 20.1596
93 31 3 -0.398 24.752778 8.452416 19.569024
94 32 1 0.269 16.395663 2.295928 27.774175
95 32 2 0.129 15.805454 3.609859 27.535767
96 32 3 -0.398 15.332478 4.662803 27.344714
97 33 1 0.269 25.358259 5.624069 7.588487
98 33 2 0.129 26.291228 4.989342 8.514926
99 33 3 -0.398 27.038882 4.480692 9.257347
100 34 1 0.269 8.835848 21.771135 29.482421
101 34 2 0.129 7.694749 21.800318 30.392719
102 34 3 -0.398 6.780307 21.823705 31.122205
103 35 1 0.269 11.923261 29.048818 27.857223
104 35 2 0.129 12.767482 29.691756 28.85998
105 35 3 -0.398 13.444015 30.206987 29.663559
106 36 1 0.269 23.747904 10.064881 11.815016
107 36 2 0.129 23.102837 11.014968 12.716584
108 36 3 -0.398 22.5859 11.776339 13.439073
109 37 1 0.269 21.010133 18.426404 2.152536
110 37 2 0.129 20.448209 17.079204 2.122606
111 37 3 -0.398 19.997901 15.999599 2.09862
112 38 1 0.269 33.454101 3.940288 12.872658
113 38 2 0.129 33.070601 4.306099 14.233066
114 38 3 -0.398 32.763275 4.599249 15.323256
115 39 1 0.269 19.055071 27.0907 8.874764
116 39 2 0.129 20.353306 27.527322 9.38028
117 39 3 -0.398 21.393673 27.877218 9.785385
118 40 1 0.269 17.334556 6.334549 8.334644
119 40 2 0.129 17.184192 7.784835 8.25939
120 40 3 -0.398 17.063694 8.947049 8.199084
121 41 1 0.269 20.61661 31.409909 13.475609
122 41 2 0.129 19.269377 30.983383 13.108679
123 41 3 -0.398 18.189745 30.641578 12.814632
124 42 1 0.269 13.45884 6.447887 16.986457
125 42 2 0.129 14.709648 5.69766 17.051552
126 42 3 -0.398 15.712009 5.09645 17.103717
127 43 1 0.269 25.627127 4.755661 2.499438
128 43 2 0.129 26.653012 5.731197 2.856497
129 43 3 -0.398 27.475124 6.512962 3.142633
130 44 1 0.269 20.47356 27.82824 19.014443
131 44 2 0.129 20.805577 27.047584 20.202695
132 44 3 -0.398 21.071645 26.42199 21.154923
133 45 1 0.269 4.541628 14.870004 28.069415
134 45 2 0.129 3.159276 14.966656 27.609675
135 45 3 -0.398 2.0515 15.04411 27.241254
136 46 1 0.269 27.833016 24.242164 15.961189
137 46 2 0.129 28.33239 23.135069 15.150902
138 46 3 -0.398 28.732573 22.247875 14.501562
139 47 1 0.269 29.883013 22.848141 31.460691
140 47 2 0.129 28.989983 22.06785 32.312303
141 47 3 -0.398 28.274335 21.442549 32.994759
142 48 1 0.269 24.683706 32.461821 21.358296
143 48 2 0.129 25.72151 31.650106 21.987328
144 48 3 -0.398 26.553175 30.999622 22.491416
145 49 1 0.269 21.610893 14.272002 15.824457
146 49 2 0.129 21.416364 15.608552 16.378887
147 49 3 -0.398 21.260475 16.679623 16.82319
148 50 1 0.269 8.806953 23.485786 25.303146
149 50 2 0.129 10.17044 23.987432 25.447553
150 50 3 -0.398 11.263098 24.389436 25.563276
151 51 1 0.269 5.150426 8.793849 33.281485
152 51 2 0.129 5.04838 7.776995 32.238799
153 51 3 -0.398 4.966604 6.962118 31.403222
154 52 1 0.269 33.403303 25.203749 17.06883
155 52 2 0.129 32.229708 25.780108 17.71851
156 52 3 -0.398 31.289224 26.241985 18.239145
157 53 1 0.269 2.344006 16.60703 31.378815
158 53 2 0.129 3.783092 16.820532 31.501491
159 53 3 -0.398 4.936332 16.991626 31.5998
160 54 1 0.269 14.371923 12.621539 5.760868
161 54 2 0.129 14.703305 13.935658 5.217842
162 54 3 -0.398 14.968864 14.988754 4.782678
163 55 1 0.269 16.670395 8.210521 29.3496
164 55 2 0.129 16.101497 6.868191 29.271487
165 55 3 -0.398 15.645598 5.792487 29.20889
166 56 1 0.269 21.314052 16.530625 7.945299
167 56 2 0.129 22.624523 17.143766 7.749531
168 56 3 -0.398 23.674694 17.635119 7.592648
169 57 1 0.269 27.499816 9.066245 12.585796
170 57 2 0.129 27.85505 7.729416 12.118573
171 57 3 -0.398 28.139723 6.658121 11.744154
172 58 1 0.269 25.162244 28.229093 29.853853
173 58 2 0.129 25.198415 27.009652 30.655886
174 58 3 -0.398 25.227401 26.032429 31.298611
175 59 1 0.269 13.091865 11.929758 22.170121
176 59 2 0.129 13.473779 12.730879 23.329408
177 59 3 -0.398 13.779834 13.372873 24.258426
178 60 1 0.269 8.13489 22.547942 20.16652
179 60 2 0.129 7.624451 21.189942 20.002548
180 60 3 -0.398 7.2154 20.101681 19.871146
181 61 1 0.269 18.405623 22.746218 12.31768
182 61 2 0.129 17.302329 21.858595 11.962058
183 61 3 -0.398 16.418182 21.147281 11.677072
184 62 1 0.269 2.683797 7.099422 13.202139
185 62 2 0.129 3.631164 8.186173 12.971779
186 62 3 -0.398 4.390356 9.057063 12.787175
187 63 1 0.269 12.076794 19.3472 31.086095
188 63 2 0.129 10.807084 20.066724 31.127582
189 63 3 -0.398 9.789576 20.643328 31.160828
190 64 1 0.269 32.064363 24.412052 13.583618
191 64 2 0.129 31.070762 24.551849 14.644191
192 64 3 -0.398 30.27452 24.663878 15.494101
193 65 1 0.269 21.282726 2.880927 6.10635
194 65 2 0.129 19.947062 2.574107 6.6098
195 65 3 -0.398 18.876701 2.328231 7.01325
196 66 1 0.269 8.960393 16.578066 26.192742
197 66 2 0.129 9.506046 17.929682 26.276378
198 66 3 -0.398 9.943317 19.012827 26.3434
199 67 1 0.269 9.46979 12.427015 21.271203
200 67 2 0.129 8.64887 11.375124 20.678567
201 67 3 -0.398 7.991009 10.532172 20.203646
202 68 1 0.269 11.996937 18.791068 5.248934
203 68 2 0.129 10.897404 19.603603 5.761197
204 68 3 -0.398 10.016272 20.254744 6.17171
205 69 1 0.269 29.611207 24.026666 29.350961
206 69 2 0.129 30.320116 23.406799 28.235249
207 69 3 -0.398 30.888214 22.910056 27.341151
208 70 1 0.269 5.346671 16.565093 9.659161
209 70 2 0.129 4.175212 16.502527 8.790041
210 70 3 -0.398 3.23644 16.452388 8.093555
211 71 1 0.269 5.53679 5.263834 21.070522
212 71 2 0.129 6.482879 6.032838 20.267309
213 71 3 -0.398 7.241045 6.649095 19.623639
214 72 1 0.269 29.300204 21.817223 23.238648
215 72 2 0.129 29.880205 22.541583 22.111483
216 72 3 -0.398 30.345 23.122063 21.208206
217 73 1 0.269 14.973436 19.892675 7.434585
218 73 2 0.129 15.76861 20.139413 8.633926
219 73 3 -0.398 16.405838 20.337142 9.595041
220 74 1 0.269 4.794176 10.378709 30.146732
221 74 2 0.129 3.456201 9.798119 30.212606
222 74 3 -0.398 2.383989 9.332853 30.265394
223 75 1 0.269 18.295065 8.359578 21.184563
224 75 2 0.129 18.684345 8.061762 22.559833
225 75 3 -0.398 18.996303 7.823102 23.661932
226 76 1 0.269 23.08688 10.245366 4.099068
227 76 2 0.129 24.484452 9.843039 4.227626
228 76 3 -0.398 25.604424 9.520627 4.330648
229 77 1 0.269 5.750372 16.440638 16.665919
230 77 2 0.129 6.319786 15.115099 16.890223
231 77 3 -0.398 6.776098 14.052851 17.069973
232 78 1 0.269 22.271219 2.538383 27.708079
233 78 2 0.129 22.95639 3.806125 27.942534
234 78 3 -0.398 23.505466 4.822056 28.130419
235 79 1 0.269 11.125769 27.798664 10.664982
236 79 2 0.129 11.52834 28.875815 9.76538
237 79 3 -0.398 11.850948 29.739011 9.044467
238 80 1 0.269 14.778495 7.158794 2.99846
239 80 2 0.129 15.043817 8.547742 2.635107
240 80 3 -0.398 15.256438 9.660804 2.343927
241 81 1 0.269 9.52502 29.217513 14.540091
242 81 2 0.129 8.172669 28.667844 14.515398
243 81 3 -0.398 7.088936 28.227355 14.49561
244 82 1 0.269 27.459811 2.140434 3.248187
245 82 2 0.129 28.794762 2.724544 3.156971
246 82 3 -0.398 29.864552 3.192632 3.083874
247 83 1 0.269 20.976849 10.083016 7.170399
248 83 2 0.129 22.320663 10.638144 7.037747
249 83 3 -0.398 23.397555 11.083007 6.931443
250 84 1 0.269 33.540749 25.18724 7.648115
251 84 2 0.129 32.420173 24.607049 8.382477
252 84 3 -0.398 31.522176 24.142101 8.970972
253 85 1 0.269 33.558426 11.354333 11.016949
254 85 2 0.129 33.079685 12.731773 10.94578
255 85 3 -0.398 32.696036 13.835612 10.888748
256 86 1 0.269 3.493777 14.868543 20.462451
257 86 2 0.129 4.46395 13.884278 20.93318
258 86 3 -0.398 5.241418 13.095517 21.310408
259 87 1 0.269 22.296094 26.051578 11.927547
260 87 2 0.129 23.170745 25.339542 12.854689
261 87 3 -0.398 23.871663 24.768939 13.597672
262 88 1 0.269 31.417231 30.39993 19.031157
263 88 2 0.129 31.501478 31.789473 19.47124
264 88 3 -0.398 31.568991 32.903011 19.823909
265 89 1 0.269 7.458145 28.675052 16.777393
266 89 2 0.129 8.447158 29.747049 16.842766
267 89 3 -0.398 9.239724 30.606116 16.895153
268 90 1 0.269 24.12077 6.549222 4.498439
269 90 2 0.129 25.012292 5.494724 4.972593
270 90 3 -0.398 25.726731 4.649681 5.352565
271 91 1 0.269 18.552919 15.224449 32.235909
272 91 2 0.129 19.357555 16.203281 32.961201
273 91 3 -0.398 20.002366 16.987687 33.542428
274 92 1 0.269 19.126844 7.49566 2.105603
275 92 2 0.129 18.17346 6.424162 2.378644
276 92 3 -0.398 17.409447 5.565496 2.597451
277 93 1 0.269 30.027074 25.114101 23.428766
278 93 2 0.129 31.242674 24.940538 22.63896
279 93 3 -0.398 32.216819 24.80145 22.006033
280 94 1 0.269 30.626853 22.177933 4.527446
281 94 2 0.129 30.76118 23.626493 4.404029
282 94 3 -0.398 30.868825 24.787324 4.305127
283 95 1 0.269 21.199862 21.021503 13.084599
284 95 2 0.129 21.313657 19.661424 13.603094
285 95 3 -0.398 21.404849 18.571498 14.018599
286 96 1 0.269 7.67726 22.557064 27.348511
287 96 2 0.129 8.891516 21.749394 27.278856
288 96 3 -0.398 9.864584 21.102151 27.223037
289 97 1 0.269 26.838081 7.424759 26.226418
290 97 2 0.129 26.989929 6.664751 27.463726
291 97 3 -0.398 27.111616 6.055704 28.455268
292 98 1 0.269 9.112341 10.561885 22.814686
293 98 2 0.129 7.74183 10.921279 23.167016
294 98 3 -0.398 6.643544 11.209287 23.449363
295 99 1 0.269 19.886524 14.829864 27.915218
296 99 2 0.129 20.940323 13.896112 28.301504
297 99 3 -0.398 21.784806 13.147832 28.611062
298 100 1 0.269 31.540832 11.26395 4.722034
299 100 2 0.129 32.170109 11.141976 3.410267
300 100 3 -0.398 32.674392 11.04423 2.359056
301 101 1 0.269 12.380425 27.509994 31.693422
302 101 2 0.129 11.070633 26.930295 31.976257
303 101 3 -0.398 10.021006 26.465742 32.202912
304 102 1 0.269 33.354062 30.626417 15.852257
305 102 2 0.129 33.111652 29.560506 14.884439
306 102 3 -0.398 32.917391 28.706317 14.10886
307 103 1 0.269 6.269733 8.559172 8.675295
308 103 2 0.129 6.59003 7.618489 9.744934
309 103 3 -0.398 6.846707 6.864654 10.602109
310 104 1 0.269 11.043281 24.464395 28.219048
311 104 2 0.129 9.655498 24.914576 28.164324
312 104 3 -0.398 8.54337 25.275338 28.12047
313 105 1 0.269 19.836913 32.642396 8.071792
314 105 2 0.129 20.49934 31.366762 8.327815
315 105 3 -0.398 21.03019 30.344507 8.532984
316 106 1 0.269 32.289678 10.846922 28.534571
317 106 2 0.129 30.923858 10.840427 29.050412
318 106 3 -0.398 29.82933 10.835223 29.463792
319 107 1 0.269 13.951269 17.277718 22.798424
320 107 2 0.129 15.380177 17.542888 22.938092
321 107 3 -0.398 16.525261 17.755388 23.050019
322 108 1 0.269 13.46493 29.656879 25.472429
323 108 2 0.129 13.288238 28.208877 25.533025
324 108 3 -0.398 13.146643 27.048493 25.581585
325 109 1 0.269 26.122113 13.602126 21.060668
326 109 2 0.129 26.996676 14.280327 20.108417
327 109 3 -0.398 27.697525 14.823818 19.345311
328 110 1 0.269 9.095706 10.820381 30.840434
329 110 2 0.129 8.105817 11.679214 30.196908
330 110 3 -0.398 7.312549 12.367456 29.681206
331 111 1 0.269 20.142682 12.161269 26.305636
332 111 2 0.129 21.56605 12.142411 26.630085
333 111 3 -0.398 22.706695 12.127298 26.890088
334 112 1 0.269 26.988819 11.497516 11.908828
335 112 2 0.129 28.443102 11.623117 11.938593
336 112 3 -0.398 29.608521 11.72377 11.962446
337 113 1 0.269 24.313023 5.631324 33.220235
338 113 2 0.129 25.743364 5.858178 33.405332
339 113 3 -0.398 26.889596 6.039972 33.553664
340 114 1 0.269 20.177705 12.4216 8.70244
341 114 2 0.129 21.637193 12.383078 8.699058
342 114 3 -0.398 22.806782 12.352207 8.696348
343 115 1 0.269 16.921747 4.748645 24.231894
344 115 2 0.129 16.328552 6.082113 24.271702
345 115 3 -0.398 15.853183 7.150713 24.303603
346 116 1 0.269 8.079462 25.611566 13.949666
347 116 2 0.129 8.082535 26.150063 15.306726
348 116 3 -0.398 8.084998 26.581599 16.394232
349 117 1 0.269 2.617339 16.426219 33.554739
350 117 2 0.129 2.27569 17.84566 33.546879
351 117 3 -0.398 2.001902 18.983158 33.540581
352 118 1 0.269 20.181206 27.065698 12.448997
353 118 2 0.129 18.736132 27.273388 12.464067
354 118 3 -0.398 17.578093 27.439824 12.476144
355 119 1 0.269 3.01049 12.085349 19.132071
356 119 2 0.129 2.684111 12.084854 20.555122
357 119 3 -0.398 2.42256 12.084457 21.695513
358 120 1 0.269 28.777308 32.178972 21.096906
359 120 2 0.129 27.553496 32.87127 20.703704
360 120 3 -0.398 26.572771 33.426057 20.388604
361 121 1 0.269 22.605074 12.984709 11.545893
362 121 2 0.129 21.769451 11.877676 11.090029
363 121 3 -0.398 21.099809 10.990533 10.724712
364 122 1 0.269 27.963603 23.73872 8.060816
365 122 2 0.129 27.443246 25.033797 8.489309
366 122 3 -0.398 27.026249 26.071632 8.832691
367 123 1 0.269 23.870046 21.515118 20.36316
368 123 2 0.129 24.78877 21.76035 21.471045
369 123 3 -0.398 25.525007 21.956871 22.35887
370 124 1 0.269 7.851251 32.192768 10.345998
371 124 2 0.129 7.762163 30.745502 10.51654
372 124 3 -0.398 7.69077 29.585707 10.653207
373 125 1 0.269 3.454084 17.897179 15.410716
374 125 2 0.129 3.170731 17.92055 16.842766
375 125 3 -0.398 2.94366 17.93928 17.990367
376 126 1 0.269 6.249159 6.943251 3.651397
377 126 2 0.129 5.105497 7.649414 3.081335
378 126 3 -0.398 4.189001 8.215311 2.624504
379 127 1 0.269 26.082421 21.551214 28.337386
380 127 2 0.129 26.730101 21.357177 29.631396
381 127 3 -0.398 27.249131 21.201682 30.668376
382 128 1 0.269 29.1855 2.864452 33.559999
383 128 2 0.129 29.853499 2.616934 32.285592
384 128 3 -0.398 30.388813 2.418581 31.264321
385 129 1 0.269 27.009811 25.273906 25.588
386 129 2 0.129 26.486628 24.431973 26.659927
387 129 3 -0.398 26.067365 23.757273 27.518937
388 130 1 0.269 9.958339 22.264182 12.985367
389 130 2 0.129 11.187227 22.29435 13.773101
390 130 3 -0.398 12.172021 22.318525 14.404367
391 131 1 0.269 13.630549 27.199568 14.357229
392 131 2 0.129 13.635699 26.528609 15.653912
393 131 3 -0.398 13.639825 25.990922 16.693035
394 132 1 0.269 28.103057 31.726614 3.306159
395 132 2 0.129 26.813276 32.28181 3.705937
396 132 3 -0.398 25.779685 32.726728 4.026308
397 133 1 0.269 13.048238 17.500631 31.792388
398 133 2 0.129 14.220802 17.914344 31.027186
399 133 3 -0.398 15.16046 18.245881 30.413976
400 134 1 0.269 5.966614 13.665903 31.479447
401 134 2 0.129 6.552772 14.925152 31.929236
402 134 3 -0.398 7.022502 15.934276 32.289684
403 135 1 0.269 17.650301 14.520913 23.178949
404 135 2 0.129 17.58768 13.8859 21.865771
405 135 3 -0.398 17.537497 13.37702 20.813429
406 136 1 0.269 13.455975 24.845181 25.289756
407 136 2 0.129 13.275896 24.272113 26.620456
408 136 3 -0.398 13.131586 23.812874 27.68684
409 137 1 0.269 4.847102 8.634035 22.357168
410 137 2 0.129 4.632715 10.001179 22.822525
411 137 3 -0.398 4.460912 11.096766 23.195448
412 138 1 0.269 7.175962 19.235137 6.826107
413 138 2 0.129 6.622843 19.468175 8.157028
414 138 3 -0.398 6.17959 19.654925 9.223589
415 139 1 0.269 17.401555 13.929747 6.914898
416 139 2 0.129 16.631838 12.769764 7.35487
417 139 3 -0.398 16.01501 11.840189 7.707451
418 140 1 0.269 6.811688 4.277691 28.154657
419 140 2 0.129 8.262014 4.4258 28.075793
420 140 3 -0.398 9.424261 4.54449 28.012594
421 141 1 0.269 32.747761 20.364167 21.666475
422 141 2 0.129 31.536004 20.146469 22.451237
423 141 3 -0.398 30.564937 19.972013 23.080121
424 142 1 0.269 11.100558 6.663406 6.227882
425 142 2 0.129 10.891423 5.231557 6.421974
426 142 3 -0.398 10.72383 4.084116 6.577513
427 143 1 0.269 11.268083 6.393056 21.461932
428 143 2 0.129 12.524357 5.663532 21.607434
429 143 3 -0.398 13.531097 5.078914 21.724034
430 144 1 0.269 6.944023 24.654474 31.890542
431 144 2 0.129 7.677881 25.779291 31.317969
432 144 3 -0.398 8.265972 26.680685 30.859126
433 145 1 0.269 31.199104 32.510506 8.471414
434 145 2 0.129 31.688758 31.187999 8.093507
435 145 3 -0.398 32.081152 30.128182 7.790663
436 146 1 0.269 31.800302 32.973447 32.324956
437 146 2 0.129 32.336735 31.616808 32.266882
438 146 3 -0.398 32.766616 30.529639 32.220343
439 147 1 0.269 14.733423 8.711549 7.94316
440 147 2 0.129 14.257864 8.920689 9.307603
441 147 3 -0.398 13.876766 9.088288 10.401027
442 148 1 0.269 27.482889 2.001798 32.063381
443 148 2 0.129 27.714632 3.442894 32.029653
444 148 3 -0.398 27.900345 4.597744 32.002624
445 149 1 0.269 17.224021 13.140082 30.449423
446 149 2 0.129 16.548425 12.704676 29.230575
447 149 3 -0.398 16.007024 12.355755 28.253826
448 150 1 0.269 25.357631 14.771889 5.552833
449 150 2 0.129 24.20041 14.135925 4.929944
450 150 3 -0.398 23.273049 13.626283 4.43078
451 151 1 0.269 17.328638 32.541075 26.126282
452 151 2 0.129 18.499492 32.841922 25.307629
453 151 3 -0.398 19.437779 33.083012 24.651585
454 152 1 0.269 32.344283 13.394775 33.271968
455 152 2 0.129 32.993645 13.031844 32.0157
456 152 3 -0.398 33.514023 12.741002 31.008964
457 153 1 0.269 11.756398 4.450322 28.314336
458 153 2 0.129 11.402203 5.059604 29.592977
459 153 3 -0.398 11.118361 5.547864 30.617641
460 154 1 0.269 27.192294 33.527088 17.834366
461 154 2 0.129 28.593983 33.191602 17.601309
462 154 3 -0.398 29.717255 32.922755 17.414544
463 155 1 0.269 32.995072 28.258172 27.735912
464 155 2 0.129 31.774358 27.515855 27.43521
465 155 3 -0.398 30.796114 26.920985 27.194237
466 156 1 0.269 14.507046 26.660176 22.170969
467 156 2 0.129 15.105813 26.367744 23.470031
468 156 3 -0.398 15.585647 26.133398 24.51106
469 157 1 0.269 22.957513 5.325176 25.783096
470 157 2 0.129 22.134396 6.370341 26.384519
471 157 3 -0.398 21.474775 7.207904 26.866481
472 158 1 0.269 33.48585 26.368875 5.552993
473 158 2 0.129 33.314539 26.844034 4.183147
474 158 3 -0.398 33.177255 27.224812 3.085394
475 159 1 0.269 15.141534 23.753824 17.322446
476 159 2 0.129 14.571464 23.55335 15.993375
477 159 3 -0.398 14.114627 23.392696 14.928298
478 160 1 0.269 12.965734 16.5533 11.21889
479 160 2 0.129 13.904937 17.245691 10.341341
480 160 3 -0.398 14.657587 17.800552 9.638101
481 161 1 0.269 25.568907 5.414261 10.886163
482 161 2 0.129 24.756809 5.42499 12.099415
483 161 3 -0.398 24.106017 5.433588 13.071679
484 162 1 0.269 20.099528 3.649026 13.119616
485 162 2 0.129 19.723337 4.15154 14.437781
486 162 3 -0.398 19.421869 4.55424 15.494119
487 163 1 0.269 13.083535 33.073154 29.500751
488 163 2 0.129 13.205588 32.165286 30.637624
489 163 3 -0.398 13.303397 31.437749 31.548679
490 164 1 0.269 11.77011 29.104379 13.6207
491 164 2 0.129 10.893671 29.634017 12.580057
492 164 3 -0.398 10.19132 30.058453 11.746117
493 165 1 0.269 18.991684 14.956307 19.946829
494 165 2 0.129 19.628425 16.268333 19.877931
495 165 3 -0.398 20.13869 17.319752 19.822718
496 166 1 0.269 28.870374 11.288371 14.088238
497 166 2 0.129 28.636042 12.726468 13.995682
498 166 3 -0.398 28.448255 13.878915 13.921511
499 167 1 0.269 9.558498 30.908502 30.341545
500 167 2 0.129 9.76951 29.463883 30.353836
501 167 3 -0.398 9.938608 28.306209 30.363686
502 168 1 0.269 15.616591 7.176607 32.561371
503 168 2 0.129 16.845571 7.435928 31.817086
504 168 3 -0.398 17.830438 7.643741 31.220638
505 169 1 0.269 20.385444 29.032588 21.798711
506 169 2 0.129 19.12294 28.304672 21.710279
507 169 3 -0.398 18.111206 27.721342 21.639412
508 170 1 0.269 22.045797 6.171805 32.351698
509 170 2 0.129 21.837365 5.014415 31.486478
510 170 3 -0.398 21.670335 4.086918 30.793117
511 171 1 0.269 30.532088 20.593057 9.04547
512 171 2 0.129 30.435873 19.67333 7.915672
513 171 3 -0.398 30.358769 18.936288 7.010286
514 172 1 0.269 23.678001 6.873976 23.134251
515 172 2 0.129 22.684807 7.725132 23.782865
516 172 3 -0.398 21.888892 8.407223 24.302645
517 173 1 0.269 12.481609 9.02257 32.691134
518 173 2 0.129 13.844972 9.245263 33.163628
519 173 3 -0.398 14.93753 9.423723 33.54227
520 174 1 0.269 15.985862 12.817211 14.356804
521 174 2 0.129 15.040844 11.780555 14.761633
522 174 3 -0.398 14.283535 10.949811 15.086051
523 175 1 0.269 29.440202 3.597475 24.878016
524 175 2 0.129 30.454447 2.71072 25.440663
525 175 3 -0.398 31.267233 2.000101 25.891552
526 176 1 0.269 20.180781 28.100963 2.885755
527 176 2 0.129 18.810523 28.598248 2.967617
528 176 3 -0.398 17.712439 28.996757 3.033218
529 177 1 0.269 2.803665 4.494605 32.146539
530 177 2 0.129 2.436022 5.867061 32.482397
531 177 3 -0.398 2.141404 6.966907 32.751544
532 178 1 0.269 26.052517 15.545265 9.384725
533 178 2 0.129 26.182926 16.896384 8.847072
534 178 3 -0.398 26.287432 17.97913 8.416213
535 179 1 0.269 6.704371 16.041086 7.999614
536 179 2 0.129 8.067824 16.35658 7.583611
537 179 3 -0.398 9.160455 16.609407 7.250238
538 180 1 0.269 2.527588 8.286081 21.527732
539 180 2 0.129 2.237556 9.450232 22.359737
540 180 3 -0.398 2.005133 10.383148 23.026481
541 181 1 0.269 27.153479 12.416792 17.0902
542 181 2 0.129 28.335094 13.098206 16.569565
543 181 3 -0.398 29.282005 13.644271 16.152344
544 182 1 0.269 8.910661 21.459466 33.437992
545 182 2 0.129 10.022753 20.513816 33.462422
546 182 3 -0.398 10.91395 19.756 33.481999
547 183 1 0.269 18.069481 5.637594 16.872125
548 183 2 0.129 19.062644 4.944044 17.687119
549 183 3 -0.398 19.858535 4.388255 18.340231
550 184 1 0.269 23.761711 26.405657 23.466344
551 184 2 0.129 24.846601 27.380554 23.401631
552 184 3 -0.398 25.716 28.161808 23.349772
553 185 1 0.269 15.435858 17.833061 3.906018
554 185 2 0.129 14.645651 18.120887 5.099471
555 185 3 -0.398 14.012403 18.351542 6.055868
556 186 1 0.269 4.053698 6.94174 20.183391
557 186 2 0.129 4.168131 8.37341 19.921045
558 186 3 -0.398 4.259834 9.520707 19.710808
559 187 1 0.269 18.288909 24.166029 16.398522
560 187 2 0.129 17.625908 23.333674 15.398914
561 187 3 -0.398 17.094599 22.666651 14.597858
562 188 1 0.269 18.887426 3.329376 23.981849
563 188 2 0.129 19.757441 3.426087 25.150318
564 188 3 -0.398 20.454644 3.503589 26.086695
565 189 1 0.269 16.342829 10.550091 30.602158
566 189 2 0.129 15.071395 10.875799 31.241666
567 189 3 -0.398 14.052507 11.136811 31.754148
568 190 1 0.269 28.473661 8.672469 27.014089
569 190 2 0.129 29.537215 7.977174 26.295048
570 190 3 -0.398 30.389514 7.419987 25.71883
571 191 1 0.269 17.961466 13.309401 17.94296
572 191 2 0.129 18.687976 14.525973 17.5912
573 191 3 -0.398 19.270179 15.500897 17.309309
574 192 1 0.269 8.034314 18.390757 14.835416
575 192 2 0.129 9.346116 17.951334 15.301982
576 192 3 -0.398 10.397354 17.599193 15.675873
577 193 1 0.269 25.575651 20.463863 26.486559
578 193 2 0.129 24.161029 20.820377 26.428747
579 193 3 -0.398 23.027393 21.106076 26.382418
580 194 1 0.269 9.678311 7.155927 15.214119
581 194 2 0.129 9.505066 7.068025 16.661137
582 194 3 -0.398 9.366233 6.997584 17.820733
583 195 1 0.269 21.195183 14.741945 19.279058
584 195 2 0.129 21.650197 13.74747 18.311803
585 195 3 -0.398 22.014831 12.950528 17.536675
586 196 1 0.269 23.37739 24.431761 6.631641
587 196 2 0.129 23.147168 24.105184 8.035901
588 196 3 -0.398 22.962675 23.843474 9.161232
589 197 1 0.269 28.861427 29.71342 9.428431
590 197 2 0.129 29.201048 31.113076 9.667641
591 197 3 -0.398 29.47321 32.234718 9.859336
592 198 1 0.269 31.143208 13.335095 6.53014
593 198 2 0.129 32.267114 13.452695 5.605691
594 198 3 -0.398 33.167778 13.546936 4.864866
595 199 1 0.269 9.299167 17.593693 33.007868
596 199 2 0.129 10.631828 17.041325 33.232599
597 199 3 -0.398 11.699783 16.598674 33.412692
598 200 1 0.269 10.753138 16.687348 3.638134
599 200 2 0.129 10.991889 16.774851 5.07582
600 200 3 -0.398 11.183217 16.844972 6.227938
601 201 1 0.269 29.137945 19.061042 2.640472
602 201 2 0.129 29.514898 19.659903 3.917528
603 201 3 -0.398 29.816977 20.139813 4.940922
604 202 1 0.269 21.290693 11.1738 22.748975
605 202 2 0.129 22.611337 11.795957 22.769486
606 202 3 -0.398 23.669661 12.294534 22.785922
607 203 1 0.269 12.268181 2.268417 28.462073
608 203 2 0.129 13.256135 2.791287 29.401303
609 203 3 -0.398 14.047851 3.210299 30.153974
610 204 1 0.269 29.433266 11.126106 6.207135
611 204 2 0.129 28.583651 10.133795 6.85911
612 204 3 -0.398 27.902794 9.338586 7.381583
613 205 1 0.269 30.53224 17.628933 9.336572
614 205 2 0.129 29.721305 16.822852 8.428708
615 205 3 -0.398 29.071446 16.176883 7.701173
616 206 1 0.269 5.196578 8.505945 26.043506
617 206 2 0.129 5.489664 9.301119 27.23237
618 206 3 -0.398 5.724534 9.938347 28.185091
619 207 1 0.269 11.24816 31.6174 28.312379
620 207 2 0.129 10.650066 32.68993 29.102039
621 207 3 -0.398 10.170771 33.549423 29.734849
622 208 1 0.269 16.232485 7.41654 10.798844
623 208 2 0.129 14.919982 6.792643 10.939157
624 208 3 -0.398 13.868181 6.292671 11.051599
625 209 1 0.269 15.99257 11.721897 10.7476
626 209 2 0.129 14.652392 12.123875 11.164657
627 209 3 -0.398 13.578414 12.446007 11.498873
628 210 1 0.269 25.713059 31.10393 18.023219
629 210 2 0.129 25.777266 29.651666 18.158888
630 210 3 -0.398 25.82872 28.487865 18.267609
631 211 1 0.269 29.226726 22.401852 12.172936
632 211 2 0.129 29.502355 22.7218 10.775344
633 211 3 -0.398 29.723236 22.978197 9.655357
634 212 1 0.269 23.142432 31.488689 26.590382
635 212 2 0.129 24.490079 30.957367 26.408326
636 212 3 -0.398 25.570043 30.531581 26.262432
637 213 1 0.269 2.456444 19.926891 25.39425
638 213 2 0.129 3.10565 20.047378 24.092092
639 213 3 -0.398 3.625905 20.143932 23.048582
640 214 1 0.269 25.351966 3.25314 24.796702
641 214 2 0.129 25.229659 4.544751 25.466313
642 214 3 -0.398 25.131647 5.57981 26.00292
643 215 1 0.269 20.868885 19.516635 29.770901
644 215 2 0.129 19.716886 19.776965 30.629229
645 215 3 -0.398 18.793708 19.985585 31.317067
646 216 1 0.269 30.131317 2.020629 8.629061
647 216 2 0.129 30.69825 2.795538 7.529196
648 216 3 -0.398 31.152572 3.416528 6.647798
649 217 1 0.269 18.61862 23.807582 6.453571
650 217 2 0.129 17.308273 23.166127 6.509471
651 217 3 -0.398 16.2582 22.652083 6.554267
652 218 1 0.269 5.737848 30.024842 2.522669
653 218 2 0.129 4.54335 30.812637 2.23258
654 218 3 -0.398 3.586115 31.443953 2.000112
655 219 1 0.269 26.227562 18.788644 18.797376
656 219 2 0.129 25.046661 18.476473 19.597139
657 219 3 -0.398 24.100322 18.226309 20.238045
658 220 1 0.269 14.954806 17.451155 19.946604
659 220 2 0.129 16.00444 18.384853 20.344192
660 220 3 -0.398 16.845585 19.133091 20.662807
661 221 1 0.269 26.285294 5.414101 20.917254
662 221 2 0.129 25.093926 4.681812 20.497735
663 221 3 -0.398 24.1392 4.094978 20.161546
664 222 1 0.269 20.294567 14.858129 10.156298