LAMMPS data file - Bulk Water Simulation

288 atoms
192 bonds
96 angles
0 dihedrals
0 impropers


3 atom types
1 bond types
1 angle types
0 dihedral types

    0.0     14.219066 xlo xhi
    0.0     14.219066 ylo yhi
    0.0     14.219066 zlo zhi

Masses

       1    15.9994
       2     1.008
       3    16.04

Pair Coeffs

   1     0.1553     3.166
   2     0.00000    0.00000
   3     0.2941     3.730

Atoms

1 1 1 -0.8476 8.528116 2.479344 6.107089
2 1 2 0.4238 8.694171 1.999662 5.30304
3 1 2 0.4238 7.706153 2.164609 6.466907
4 2 1 -0.8476 2.800244 4.91463 5.474649
5 2 2 0.4238 1.99919 4.80451 4.974299
6 2 2 0.4238 3.379282 5.477799 4.972946
7 3 1 -0.8476 5.103468 2.691083 6.022603
8 3 2 0.4238 5.573098 3.51783 6.032727
9 3 2 0.4238 5.73243 1.999262 6.195636
10 4 1 -0.8476 1.998031 8.739372 8.125355
11 4 2 0.4238 2.870638 8.75822 7.74804
12 4 2 0.4238 2.063434 9.052907 9.020658
13 5 1 -0.8476 8.03123 11.125758 3.73587
14 5 2 0.4238 7.284924 10.539039 3.790201
15 5 2 0.4238 7.728049 12.00007 3.954526
16 6 1 -0.8476 2.621122 7.237906 4.222814
17 6 2 0.4238 3.281679 7.258698 3.539151
18 6 2 0.4238 1.99978 6.552314 4.003617
19 7 1 -0.8476 6.679969 9.274335 10.500264
20 7 2 0.4238 6.681441 9.697458 9.64872
21 7 2 0.4238 7.580827 9.063718 10.719911
22 8 1 -0.8476 9.730049 9.606408 10.049187
23 8 2 0.4238 10.047535 9.80603 9.175393
24 8 2 0.4238 10.253155 10.104513 10.667573
25 9 1 -0.8476 8.946419 2.035644 2.53455
26 9 2 0.4238 9.410111 2.000885 3.363974
27 9 2 0.4238 9.359608 2.704936 2.000253
28 10 1 -0.8476 12.00087 9.785475 9.604249
29 10 2 0.4238 11.976863 9.722394 8.655773
30 10 2 0.4238 11.979753 8.901262 9.95335
31 11 1 -0.8476 12.000792 4.99881 8.063957
32 11 2 0.4238 11.125147 5.063825 7.699015
33 11 2 0.4238 11.966385 5.322707 8.957297
34 12 1 -0.8476 1.999278 6.110662 11.42728
35 12 2 0.4238 2.578477 5.546873 11.928113
36 12 2 0.4238 2.060811 6.986227 11.792998
37 13 1 -0.8476 6.396532 6.554163 4.081124
38 13 2 0.4238 5.542519 6.401371 4.470329
39 13 2 0.4238 6.307679 6.452049 3.13994
40 14 1 -0.8476 1.998345 2.70995 11.853454
41 14 2 0.4238 2.408491 3.555506 11.998293
42 14 2 0.4238 2.656722 2.040137 12.001914
43 15 1 -0.8476 11.908831 5.044152 5.858503
44 15 2 0.4238 12.001144 4.214725 5.402769
45 15 2 0.4238 11.903935 5.734329 5.204452
46 16 1 -0.8476 2.942597 9.273774 11.903338
47 16 2 0.4238 2.871273 9.637698 11.02776
48 16 2 0.4238 3.806999 8.88626 11.985743
49 17 1 -0.8476 2.749951 11.446962 2.0
50 17 2 0.4238 3.524727 11.998172 2.007249
51 17 2 0.4238 2.000001 12.0 2.189404
52 18 1 -0.8476 11.047862 10.273361 1.999763
53 18 2 0.4238 11.93806 9.939139 1.997011
54 18 2 0.4238 10.542821 9.745474 2.608384
55 19 1 -0.8476 10.236613 11.977776 4.981508
56 19 2 0.4238 10.014775 11.967122 4.056933
57 19 2 0.4238 9.425731 11.914328 5.474048
58 20 1 -0.8476 6.621704 1.999614 4.324956
59 20 2 0.4238 5.731485 2.009946 3.990938
60 20 2 0.4238 7.210642 2.013365 3.578556
61 21 1 -0.8476 2.060573 2.864676 5.935801
62 21 2 0.4238 2.112058 1.999603 6.327158
63 21 2 0.4238 1.998847 3.498248 6.642148
64 22 1 -0.8476 6.288642 2.466619 11.437438
65 22 2 0.4238 5.681312 1.999576 12.00063
66 22 2 0.4238 7.085827 2.616678 11.933553
67 23 1 -0.8476 4.412367 12.00076 6.131
68 23 2 0.4238 5.351176 11.998899 6.281989
69 23 2 0.4238 3.998118 11.589149 6.881415
70 24 1 -0.8476 2.404931 11.126655 4.882103
71 24 2 0.4238 3.282188 11.212202 4.525361
72 24 2 0.4238 2.041489 12.001072 4.968446
73 25 1 -0.8476 9.420019 4.64192 10.068285
74 25 2 0.4238 10.060055 5.170494 10.532101
75 25 2 0.4238 9.893008 3.974004 9.584218
76 26 1 -0.8476 12.000164 6.95758 7.661014
77 26 2 0.4238 11.889689 7.818664 8.048948
78 26 2 0.4238 11.857562 7.041948 6.724693
79 27 1 -0.8476 9.69525 6.873334 7.761727
80 27 2 0.4238 9.872234 6.426213 6.941408
81 27 2 0.4238 9.674243 6.217355 8.449769
82 28 1 -0.8476 2.859657 11.383064 9.97738
83 28 2 0.4238 3.451973 12.00029 9.562221
84 28 2 0.4238 1.999104 11.786148 10.010874
85 29 1 -0.8476 9.266005 11.474469 2.200125
86 29 2 0.4238 8.499745 12.000576 1.999576
87 29 2 0.4238 10.035298 11.998683 2.006375
88 30 1 -0.8476 11.098725 3.627392 2.346146
89 30 2 0.4238 12.002889 3.90017 2.456795
90 30 2 0.4238 10.704615 3.575812 3.209956
91 31 1 -0.8476 11.96297 12.001778 3.326877
92 31 2 0.4238 11.952113 11.099256 3.626041
93 31 2 0.4238 12.000629 11.990917 2.376817
94 32 1 -0.8476 2.472647 7.457565 6.282052
95 32 2 0.4238 2.011967 6.652622 6.072281
96 32 2 0.4238 3.390008 7.330079 6.06677
97 33 1 -0.8476 10.563784 7.679172 2.060794
98 33 2 0.4238 10.31675 7.727528 2.977746
99 33 2 0.4238 11.490558 7.882997 2.000004
100 34 1 -0.8476 9.649309 1.999099 8.443855
101 34 2 0.4238 8.830676 2.350126 8.111014
102 34 2 0.4238 9.600548 2.002863 9.393465
103 35 1 -0.8476 6.530413 7.571864 11.538986
104 35 2 0.4238 6.665174 7.273339 10.646301
105 35 2 0.4238 6.047615 6.894952 12.000339
106 36 1 -0.8476 10.165465 4.757745 4.82377
107 36 2 0.4238 9.889303 5.666988 4.858067
108 36 2 0.4238 9.524575 4.242806 5.301524
109 37 1 -0.8476 10.60182 7.339524 10.143529
110 37 2 0.4238 11.457399 6.948329 10.00527
111 37 2 0.4238 10.386236 7.844853 9.367439
112 38 1 -0.8476 2.485502 4.939675 8.74802
113 38 2 0.4238 1.999995 5.292873 9.485379
114 38 2 0.4238 1.999962 5.145786 7.95687
115 39 1 -0.8476 5.964593 3.871176 8.504783
116 39 2 0.4238 6.068407 3.039796 8.055124
117 39 2 0.4238 6.346696 3.781055 9.370823
118 40 1 -0.8476 10.055765 8.510311 6.65491
119 40 2 0.4238 10.046301 9.439096 6.451364
120 40 2 0.4238 10.349962 8.047209 5.878292
121 41 1 -0.8476 11.907531 6.902121 11.968031
122 41 2 0.4238 12.000409 7.848125 11.99283
123 41 2 0.4238 10.978569 6.701937 12.001302
124 42 1 -0.8476 7.804449 5.431427 5.920823
125 42 2 0.4238 7.051552 4.864278 6.04593
126 42 2 0.4238 7.895314 5.589526 4.987603
127 43 1 -0.8476 8.479224 6.394681 10.277623
128 43 2 0.4238 8.298727 6.261974 11.20173
129 43 2 0.4238 8.601946 7.327218 10.13811
130 44 1 -0.8476 9.434012 2.792925 11.70465
131 44 2 0.4238 9.95832 3.532064 11.992638
132 44 2 0.4238 9.866179 1.999282 12.000472
133 45 1 -0.8476 11.986609 5.947863 2.942979
134 45 2 0.4238 11.942953 5.84604 1.99858
135 45 2 0.4238 11.203242 5.555513 3.312503
136 46 1 -0.8476 6.754586 3.999101 2.079969
137 46 2 0.4238 7.314436 3.234815 1.99874
138 46 2 0.4238 7.304837 4.770355 1.999094
139 47 1 -0.8476 8.57341 4.365051 8.085076
140 47 2 0.4238 7.785027 4.003473 7.695361
141 47 2 0.4238 9.158785 4.611492 7.377437
142 48 1 -0.8476 11.78858 4.875763 11.908034
143 48 2 0.4238 12.00012 3.953299 12.000099
144 48 2 0.4238 12.000048 5.133307 11.017471
145 49 1 -0.8476 3.505756 3.490472 4.103887
146 49 2 0.4238 4.438309 3.641068 4.212655
147 49 2 0.4238 3.176054 4.144857 3.497893
148 50 1 -0.8476 11.55236 10.837231 12.000237
149 50 2 0.4238 12.000787 11.614792 11.686429
150 50 2 0.4238 12.000608 10.079922 11.64009
151 51 1 -0.8476 5.131909 4.079214 11.689844
152 51 2 0.4238 4.862356 4.98885 11.753625
153 51 2 0.4238 4.407423 3.541361 11.989816
154 52 1 -0.8476 2.108261 9.074216 2.905199
155 52 2 0.4238 2.333623 9.25626 1.999531
156 52 2 0.4238 1.999141 9.908002 3.349097
157 53 1 -0.8476 2.000641 6.333099 2.015672
158 53 2 0.4238 2.905551 6.04161 1.997352
159 53 2 0.4238 2.002906 7.283861 2.001656
160 54 1 -0.8476 11.670724 8.352788 4.408889
161 54 2 0.4238 11.989153 8.92709 3.72118
162 54 2 0.4238 11.998882 7.478398 4.23027
163 55 1 -0.8476 7.916428 7.85791 2.480696
164 55 2 0.4238 8.613458 8.365554 2.079935
165 55 2 0.4238 7.839019 7.042084 1.998425
166 56 1 -0.8476 5.33339 6.972378 6.375721
167 56 2 0.4238 5.497275 6.042291 6.486371
168 56 2 0.4238 6.165225 7.424771 6.462564
169 57 1 -0.8476 6.007967 11.468436 8.284296
170 57 2 0.4238 6.725332 11.99908 7.955712
171 57 2 0.4238 5.51259 11.999999 8.89764
172 58 1 -0.8476 11.611572 2.31657 8.661246
173 58 2 0.4238 12.000124 1.998761 7.853664
174 58 2 0.4238 12.00019 3.162332 8.8557
175 59 1 -0.8476 11.121963 11.914745 9.352641
176 59 2 0.4238 12.000711 11.791384 9.694323
177 59 2 0.4238 10.532861 12.000015 10.094151
178 60 1 -0.8476 5.330843 7.685114 8.282918
179 60 2 0.4238 5.646778 8.0815 9.087422
180 60 2 0.4238 5.446731 6.744429 8.359277
181 61 1 -0.8476 2.001222 2.796953 2.601165
182 61 2 0.4238 1.99988 3.533936 2.000317
183 61 2 0.4238 2.000056 2.000524 2.081694
184 62 1 -0.8476 7.374339 10.582715 5.867067
185 62 2 0.4238 7.383521 11.533544 5.868482
186 62 2 0.4238 8.216956 10.28602 5.54131
187 63 1 -0.8476 11.785347 2.065384 10.648603
188 63 2 0.4238 12.000197 1.999572 11.572547
189 63 2 0.4238 11.072074 2.688105 10.561367
190 64 1 -0.8476 9.002202 11.773804 11.926508
191 64 2 0.4238 9.923448 11.997965 11.998765
192 64 2 0.4238 8.929884 10.82728 11.981401
193 65 1 -0.8476 4.937966 8.713721 1.998871
194 65 2 0.4238 4.130869 8.210971 1.999059
195 65 2 0.4238 5.624932 8.157676 2.349647
196 66 1 -0.8476 4.643634 1.998888 1.999786
197 66 2 0.4238 5.468746 2.467432 2.061588
198 66 2 0.4238 3.974829 2.535973 2.410139
199 67 1 -0.8476 2.001825 2.684502 9.456544
200 67 2 0.4238 2.163686 2.920767 8.549823
201 67 2 0.4238 2.332304 3.389509 10.002346
202 68 1 -0.8476 2.071273 11.054125 6.853683
203 68 2 0.4238 2.27299 10.674507 7.701836
204 68 2 0.4238 1.999783 11.995392 6.967945
205 69 1 -0.8476 7.732611 2.119264 10.098436
206 69 2 0.4238 7.251485 1.999399 9.287071
207 69 2 0.4238 8.035426 3.020249 10.124493
208 70 1 -0.8476 11.893829 11.889572 6.860427
209 70 2 0.4238 11.021371 11.542953 7.011544
210 70 2 0.4238 12.001202 12.00329 5.922509
211 71 1 -0.8476 8.398851 11.572459 9.829073
212 71 2 0.4238 8.31285 10.794656 9.288898
213 71 2 0.4238 7.550925 12.002034 9.854301
214 72 1 -0.8476 5.276204 10.001081 6.33656
215 72 2 0.4238 4.995901 10.212087 5.452778
216 72 2 0.4238 5.007427 9.107512 6.519434
217 73 1 -0.8476 5.582188 11.972469 2.839318
218 73 2 0.4238 6.438496 12.000275 2.426853
219 73 2 0.4238 5.713721 12.000847 3.780617
220 74 1 -0.8476 9.235405 8.847485 11.923889
221 74 2 0.4238 10.155301 8.619865 12.002273
222 74 2 0.4238 8.731506 8.044731 12.000196
223 75 1 -0.8476 9.45133 5.861067 2.087849
224 75 2 0.4238 9.248425 6.036927 3.000026
225 75 2 0.4238 9.599717 4.925981 1.999843
226 76 1 -0.8476 4.425508 11.063855 11.17995
227 76 2 0.4238 4.702825 10.67425 12.001817
228 76 2 0.4238 4.573819 12.001174 11.239844
229 77 1 -0.8476 9.680031 9.200297 4.387862
230 77 2 0.4238 10.118744 10.029716 4.542002
231 77 2 0.4238 8.967562 9.359045 3.778487
232 78 1 -0.8476 5.040122 5.212524 2.214529
233 78 2 0.4238 4.557559 5.496515 2.983064
234 78 2 0.4238 4.750344 4.332636 2.000113
235 79 1 -0.8476 7.838837 4.005533 3.768174
236 79 2 0.4238 8.741755 3.881179 3.497181
237 79 2 0.4238 7.742503 3.626945 4.635089
238 80 1 -0.8476 7.510307 9.086806 7.935988
239 80 2 0.4238 8.413652 9.087854 7.639119
240 80 2 0.4238 6.953083 9.121704 7.166291
241 81 1 -0.8476 7.675585 6.290274 8.448293
242 81 2 0.4238 7.386351 7.189634 8.556268
243 81 2 0.4238 7.156159 5.901069 7.753408
244 82 1 -0.8476 4.466694 10.251548 3.220324
245 82 2 0.4238 5.380519 10.064903 3.405394
246 82 2 0.4238 3.951511 9.519386 3.540753
247 83 1 -0.8476 7.268115 4.51972 11.345691
248 83 2 0.4238 8.144684 4.320585 11.655749
249 83 2 0.4238 6.84525 5.06154 12.002781
250 84 1 -0.8476 4.13769 6.751291 11.06632
251 84 2 0.4238 4.63808 7.474491 10.704719
252 84 2 0.4238 4.047722 6.900877 12.001028
253 85 1 -0.8476 2.946105 9.086301 5.213263
254 85 2 0.4238 3.155751 9.624816 5.968388
255 85 2 0.4238 1.998803 9.035613 5.148458
256 86 1 -0.8476 12.001596 9.95524 6.291933
257 86 2 0.4238 11.996036 10.087074 5.350258
258 86 2 0.4238 12.001328 9.018041 6.45258
259 87 1 -0.8476 4.394649 3.826105 9.848778
260 87 2 0.4238 4.073327 3.483241 9.022122
261 87 2 0.4238 4.082672 4.720516 9.931538
262 88 1 -0.8476 2.703585 6.918326 8.556403
263 88 2 0.4238 3.481308 6.872232 8.011256
264 88 2 0.4238 2.987807 7.037365 9.455957
265 89 1 -0.8476 3.943445 9.724905 9.131519
266 89 2 0.4238 4.087766 10.425849 8.50541
267 89 2 0.4238 4.683899 9.713125 9.727957
268 90 1 -0.8476 8.957026 11.94738 7.418087
269 90 2 0.4238 9.485361 12.003115 8.206706
270 90 2 0.4238 8.651809 11.050446 7.337461
271 91 1 -0.8476 4.002701 4.849127 7.07141
272 91 2 0.4238 4.404427 5.102002 7.895323
273 91 2 0.4238 3.909275 3.902863 7.073823
274 92 1 -0.8476 6.534567 11.093719 11.317444
275 92 2 0.4238 6.937777 10.570401 12.001347
276 92 2 0.4238 6.540027 11.999822 11.605713
277 93 1 -0.8476 8.516056 7.457311 5.341731
278 93 2 0.4238 8.250361 8.218861 5.84533
279 93 2 0.4238 8.264236 7.606799 4.437082
280 94 1 -0.8476 6.113212 8.504611 4.419528
281 94 2 0.4238 6.500341 8.922783 5.18073
282 94 2 0.4238 5.190812 8.365622 4.603945
283 95 1 -0.8476 10.868649 2.85357 6.329684
284 95 2 0.4238 10.576661 3.218203 7.157905
285 95 2 0.4238 10.465155 1.99809 6.232235
286 96 1 -0.8476 11.992292 2.250645 3.992334
287 96 2 0.4238 12.001304 1.998511 3.075541
288 96 2 0.4238 11.148792 2.000089 4.352723

Bonds 

1 1 1 2
2 1 1 3
3 1 4 5
4 1 4 6
5 1 7 8
6 1 7 9
7 1 10 11
8 1 10 12
9 1 13 14
10 1 13 15
11 1 16 17
12 1 16 18
13 1 19 20
14 1 19 21
15 1 22 23
16 1 22 24
17 1 25 26
18 1 25 27
19 1 28 29
20 1 28 30
21 1 31 32
22 1 31 33
23 1 34 35
24 1 34 36
25 1 37 38
26 1 37 39
27 1 40 41
28 1 40 42
29 1 43 44
30 1 43 45
31 1 46 47
32 1 46 48
33 1 49 50
34 1 49 51
35 1 52 53
36 1 52 54
37 1 55 56
38 1 55 57
39 1 58 59
40 1 58 60
41 1 61 62
42 1 61 63
43 1 64 65
44 1 64 66
45 1 67 68
46 1 67 69
47 1 70 71
48 1 70 72
49 1 73 74
50 1 73 75
51 1 76 77
52 1 76 78
53 1 79 80
54 1 79 81
55 1 82 83
56 1 82 84
57 1 85 86
58 1 85 87
59 1 88 89
60 1 88 90
61 1 91 92
62 1 91 93
63 1 94 95
64 1 94 96
65 1 97 98
66 1 97 99
67 1 100 101
68 1 100 102
69 1 103 104
70 1 103 105
71 1 106 107
72 1 106 108
73 1 109 110
74 1 109 111
75 1 112 113
76 1 112 114
77 1 115 116
78 1 115 117
79 1 118 119
80 1 118 120
81 1 121 122
82 1 121 123
83 1 124 125
84 1 124 126
85 1 127 128
86 1 127 129
87 1 130 131
88 1 130 132
89 1 133 134
90 1 133 135
91 1 136 137
92 1 136 138
93 1 139 140
94 1 139 141
95 1 142 143
96 1 142 144
97 1 145 146
98 1 145 147
99 1 148 149
100 1 148 150
101 1 151 152
102 1 151 153
103 1 154 155
104 1 154 156
105 1 157 158
106 1 157 159
107 1 160 161
108 1 160 162
109 1 163 164
110 1 163 165
111 1 166 167
112 1 166 168
113 1 169 170
114 1 169 171
115 1 172 173
116 1 172 174
117 1 175 176
118 1 175 177
119 1 178 179
120 1 178 180
121 1 181 182
122 1 181 183
123 1 184 185
124 1 184 186
125 1 187 188
126 1 187 189
127 1 190 191
128 1 190 192
129 1 193 194
130 1 193 195
131 1 196 197
132 1 196 198
133 1 199 200
134 1 199 201
135 1 202 203
136 1 202 204
137 1 205 206
138 1 205 207
139 1 208 209
140 1 208 210
141 1 211 212
142 1 211 213
143 1 214 215
144 1 214 216
145 1 217 218
146 1 217 219
147 1 220 221
148 1 220 222
149 1 223 224
150 1 223 225
151 1 226 227
152 1 226 228
153 1 229 230
154 1 229 231
155 1 232 233
156 1 232 234
157 1 235 236
158 1 235 237
159 1 238 239
160 1 238 240
161 1 241 242
162 1 241 243
163 1 244 245
164 1 244 246
165 1 247 248
166 1 247 249
167 1 250 251
168 1 250 252
169 1 253 254
170 1 253 255
171 1 256 257
172 1 256 258
173 1 259 260
174 1 259 261
175 1 262 263
176 1 262 264
177 1 265 266
178 1 265 267
179 1 268 269
180 1 268 270
181 1 271 272
182 1 271 273
183 1 274 275
184 1 274 276
185 1 277 278
186 1 277 279
187 1 280 281
188 1 280 282
189 1 283 284
190 1 283 285
191 1 286 287
192 1 286 288


Angles

1 1 2 1 3
2 1 5 4 6
3 1 8 7 9
4 1 11 10 12
5 1 14 13 15
6 1 17 16 18
7 1 20 19 21
8 1 23 22 24
9 1 26 25 27
10 1 29 28 30
11 1 32 31 33
12 1 35 34 36
13 1 38 37 39
14 1 41 40 42
15 1 44 43 45
16 1 47 46 48
17 1 50 49 51
18 1 53 52 54
19 1 56 55 57
20 1 59 58 60
21 1 62 61 63
22 1 65 64 66
23 1 68 67 69
24 1 71 70 72
25 1 74 73 75
26 1 77 76 78
27 1 80 79 81
28 1 83 82 84
29 1 86 85 87
30 1 89 88 90
31 1 92 91 93
32 1 95 94 96
33 1 98 97 99
34 1 101 100 102
35 1 104 103 105
36 1 107 106 108
37 1 110 109 111
38 1 113 112 114
39 1 116 115 117
40 1 119 118 120
41 1 122 121 123
42 1 125 124 126
43 1 128 127 129
44 1 131 130 132
45 1 134 133 135
46 1 137 136 138
47 1 140 139 141
48 1 143 142 144
49 1 146 145 147
50 1 149 148 150
51 1 152 151 153
52 1 155 154 156
53 1 158 157 159
54 1 161 160 162
55 1 164 163 165
56 1 167 166 168
57 1 170 169 171
58 1 173 172 174
59 1 176 175 177
60 1 179 178 180
61 1 182 181 183
62 1 185 184 186
63 1 188 187 189
64 1 191 190 192
65 1 194 193 195
66 1 197 196 198
67 1 200 199 201
68 1 203 202 204
69 1 206 205 207
70 1 209 208 210
71 1 212 211 213
72 1 215 214 216
73 1 218 217 219
74 1 221 220 222
75 1 224 223 225
76 1 227 226 228
77 1 230 229 231
78 1 233 232 234
79 1 236 235 237
80 1 239 238 240
81 1 242 241 243
82 1 245 244 246
83 1 248 247 249
84 1 251 250 252
85 1 254 253 255
86 1 257 256 258
87 1 260 259 261
88 1 263 262 264
89 1 266 265 267
90 1 269 268 270
91 1 272 271 273
92 1 275 274 276
93 1 278 277 279
94 1 281 280 282
95 1 284 283 285
96 1 287 286 288

