Lammps Description

2500 atoms
0 bonds
0 angles
0 dihedrals
0 impropers

2 atom types
0 bond types
0 angle types
0 dihedral types
0 improper types

0 0 xlo xhi
0 0 ylo yhi
0 0 zlo zhi

Masses

1 15.999
2 28.0855

Atoms

1 1 1 -1.0250   -13.124200   -20.534000   -15.084000
2 1 1 -1.0250   -13.124200   -20.534000   -7.542000
3 1 1 -1.0250   -13.124200   -20.534000   0.000000
4 1 1 -1.0250   -13.124200   -20.534000   7.542000
5 1 1 -1.0250   -13.124200   -20.534000   15.084000
6 1 1 -1.0250   -13.124200   0.000000   -15.084000
7 1 1 -1.0250   -13.124200   0.000000   -7.542000
8 1 1 -1.0250   -13.124200   0.000000   0.000000
9 1 1 -1.0250   -13.124200   0.000000   7.542000
10 1 1 -1.0250   -13.124200   0.000000   15.084000
11 1 1 -1.0250   -13.124200   20.534000   -15.084000
12 1 1 -1.0250   -13.124200   20.534000   -7.542000
13 1 1 -1.0250   -13.124200   20.534000   0.000000
14 1 1 -1.0250   -13.124200   20.534000   7.542000
15 1 1 -1.0250   -13.124200   20.534000   15.084000
16 1 1 -1.0250   5.131760   -20.534000   -15.084000
17 1 1 -1.0250   5.131760   -20.534000   -7.542000
18 1 1 -1.0250   5.131760   -20.534000   0.000000
19 1 1 -1.0250   5.131760   -20.534000   7.542000
20 1 1 -1.0250   5.131760   -20.534000   15.084000
21 1 1 -1.0250   5.131760   0.000000   -15.084000
22 1 1 -1.0250   5.131760   0.000000   -7.542000
23 1 1 -1.0250   5.131760   0.000000   0.000000
24 1 1 -1.0250   5.131760   0.000000   7.542000
25 1 1 -1.0250   5.131760   0.000000   15.084000
26 1 1 -1.0250   5.131760   20.534000   -15.084000
27 1 1 -1.0250   5.131760   20.534000   -7.542000
28 1 1 -1.0250   5.131760   20.534000   0.000000
29 1 1 -1.0250   5.131760   20.534000   7.542000
30 1 1 -1.0250   5.131760   20.534000   15.084000
31 1 1 -1.0250   -5.131760   -20.534000   -15.084000
32 1 1 -1.0250   -5.131760   -20.534000   -7.542000
33 1 1 -1.0250   -5.131760   -20.534000   0.000000
34 1 1 -1.0250   -5.131760   -20.534000   7.542000
35 1 1 -1.0250   -5.131760   -20.534000   15.084000
36 1 1 -1.0250   -5.131760   0.000000   -15.084000
37 1 1 -1.0250   -5.131760   0.000000   -7.542000
38 1 1 -1.0250   -5.131760   0.000000   0.000000
39 1 1 -1.0250   -5.131760   0.000000   7.542000
40 1 1 -1.0250   -5.131760   0.000000   15.084000
41 1 1 -1.0250   -5.131760   20.534000   -15.084000
42 1 1 -1.0250   -5.131760   20.534000   -7.542000
43 1 1 -1.0250   -5.131760   20.534000   0.000000
44 1 1 -1.0250   -5.131760   20.534000   7.542000
45 1 1 -1.0250   -5.131760   20.534000   15.084000
46 1 1 -1.0250   13.124200   -20.534000   -15.084000
47 1 1 -1.0250   13.124200   -20.534000   -7.542000
48 1 1 -1.0250   13.124200   -20.534000   0.000000
49 1 1 -1.0250   13.124200   -20.534000   7.542000
50 1 1 -1.0250   13.124200   -20.534000   15.084000
51 1 1 -1.0250   13.124200   0.000000   -15.084000
52 1 1 -1.0250   13.124200   0.000000   -7.542000
53 1 1 -1.0250   13.124200   0.000000   0.000000
54 1 1 -1.0250   13.124200   0.000000   7.542000
55 1 1 -1.0250   13.124200   0.000000   15.084000
56 1 1 -1.0250   13.124200   20.534000   -15.084000
57 1 1 -1.0250   13.124200   20.534000   -7.542000
58 1 1 -1.0250   13.124200   20.534000   0.000000
59 1 1 -1.0250   13.124200   20.534000   7.542000
60 1 1 -1.0250   13.124200   20.534000   15.084000
61 1 1 -1.0250   -5.131760   -20.534000   -11.313000
62 1 1 -1.0250   -5.131760   -20.534000   -3.771000
63 1 1 -1.0250   -5.131760   -20.534000   3.771000
64 1 1 -1.0250   -5.131760   -20.534000   11.313000
65 1 1 -1.0250   -5.131760   0.000000   -11.313000
66 1 1 -1.0250   -5.131760   0.000000   -3.771000
67 1 1 -1.0250   -5.131760   0.000000   3.771000
68 1 1 -1.0250   -5.131760   0.000000   11.313000
69 1 1 -1.0250   -5.131760   20.534000   -11.313000
70 1 1 -1.0250   -5.131760   20.534000   -3.771000
71 1 1 -1.0250   -5.131760   20.534000   3.771000
72 1 1 -1.0250   -5.131760   20.534000   11.313000
73 1 1 -1.0250   13.124200   -20.534000   -11.313000
74 1 1 -1.0250   13.124200   -20.534000   -3.771000
75 1 1 -1.0250   13.124200   -20.534000   3.771000
76 1 1 -1.0250   13.124200   -20.534000   11.313000
77 1 1 -1.0250   13.124200   0.000000   -11.313000
78 1 1 -1.0250   13.124200   0.000000   -3.771000
79 1 1 -1.0250   13.124200   0.000000   3.771000
80 1 1 -1.0250   13.124200   0.000000   11.313000
81 1 1 -1.0250   13.124200   20.534000   -11.313000
82 1 1 -1.0250   13.124200   20.534000   -3.771000
83 1 1 -1.0250   13.124200   20.534000   3.771000
84 1 1 -1.0250   13.124200   20.534000   11.313000
85 1 1 -1.0250   -13.124200   -20.534000   -11.313000
86 1 1 -1.0250   -13.124200   -20.534000   -3.771000
87 1 1 -1.0250   -13.124200   -20.534000   3.771000
88 1 1 -1.0250   -13.124200   -20.534000   11.313000
89 1 1 -1.0250   -13.124200   0.000000   -11.313000
90 1 1 -1.0250   -13.124200   0.000000   -3.771000
91 1 1 -1.0250   -13.124200   0.000000   3.771000
92 1 1 -1.0250   -13.124200   0.000000   11.313000
93 1 1 -1.0250   -13.124200   20.534000   -11.313000
94 1 1 -1.0250   -13.124200   20.534000   -3.771000
95 1 1 -1.0250   -13.124200   20.534000   3.771000
96 1 1 -1.0250   -13.124200   20.534000   11.313000
97 1 1 -1.0250   5.131760   -20.534000   -11.313000
98 1 1 -1.0250   5.131760   -20.534000   -3.771000
99 1 1 -1.0250   5.131760   -20.534000   3.771000
100 1 1 -1.0250   5.131760   -20.534000   11.313000
101 1 1 -1.0250   5.131760   0.000000   -11.313000
102 1 1 -1.0250   5.131760   0.000000   -3.771000
103 1 1 -1.0250   5.131760   0.000000   3.771000
104 1 1 -1.0250   5.131760   0.000000   11.313000
105 1 1 -1.0250   5.131760   20.534000   -11.313000
106 1 1 -1.0250   5.131760   20.534000   -3.771000
107 1 1 -1.0250   5.131760   20.534000   3.771000
108 1 1 -1.0250   5.131760   20.534000   11.313000
109 1 1 -1.0250   -3.996240   -10.267000   -15.084000
110 1 1 -1.0250   -3.996240   -10.267000   -7.542000
111 1 1 -1.0250   -3.996240   -10.267000   0.000000
112 1 1 -1.0250   -3.996240   -10.267000   7.542000
113 1 1 -1.0250   -3.996240   -10.267000   15.084000
114 1 1 -1.0250   -3.996240   10.267000   -15.084000
115 1 1 -1.0250   -3.996240   10.267000   -7.542000
116 1 1 -1.0250   -3.996240   10.267000   0.000000
117 1 1 -1.0250   -3.996240   10.267000   7.542000
118 1 1 -1.0250   -3.996240   10.267000   15.084000
119 1 1 -1.0250   14.259800   -10.267000   -15.084000
120 1 1 -1.0250   14.259800   -10.267000   -7.542000
121 1 1 -1.0250   14.259800   -10.267000   0.000000
122 1 1 -1.0250   14.259800   -10.267000   7.542000
123 1 1 -1.0250   14.259800   -10.267000   15.084000
124 1 1 -1.0250   14.259800   10.267000   -15.084000
125 1 1 -1.0250   14.259800   10.267000   -7.542000
126 1 1 -1.0250   14.259800   10.267000   0.000000
127 1 1 -1.0250   14.259800   10.267000   7.542000
128 1 1 -1.0250   14.259800   10.267000   15.084000
129 1 1 -1.0250   -14.259800   -10.267000   -15.084000
130 1 1 -1.0250   -14.259800   -10.267000   -7.542000
131 1 1 -1.0250   -14.259800   -10.267000   0.000000
132 1 1 -1.0250   -14.259800   -10.267000   7.542000
133 1 1 -1.0250   -14.259800   -10.267000   15.084000
134 1 1 -1.0250   -14.259800   10.267000   -15.084000
135 1 1 -1.0250   -14.259800   10.267000   -7.542000
136 1 1 -1.0250   -14.259800   10.267000   0.000000
137 1 1 -1.0250   -14.259800   10.267000   7.542000
138 1 1 -1.0250   -14.259800   10.267000   15.084000
139 1 1 -1.0250   3.996240   -10.267000   -15.084000
140 1 1 -1.0250   3.996240   -10.267000   -7.542000
141 1 1 -1.0250   3.996240   -10.267000   0.000000
142 1 1 -1.0250   3.996240   -10.267000   7.542000
143 1 1 -1.0250   3.996240   -10.267000   15.084000
144 1 1 -1.0250   3.996240   10.267000   -15.084000
145 1 1 -1.0250   3.996240   10.267000   -7.542000
146 1 1 -1.0250   3.996240   10.267000   0.000000
147 1 1 -1.0250   3.996240   10.267000   7.542000
148 1 1 -1.0250   3.996240   10.267000   15.084000
149 1 1 -1.0250   -14.259800   -10.267000   -11.313000
150 1 1 -1.0250   -14.259800   -10.267000   -3.771000
151 1 1 -1.0250   -14.259800   -10.267000   3.771000
152 1 1 -1.0250   -14.259800   -10.267000   11.313000
153 1 1 -1.0250   -14.259800   10.267000   -11.313000
154 1 1 -1.0250   -14.259800   10.267000   -3.771000
155 1 1 -1.0250   -14.259800   10.267000   3.771000
156 1 1 -1.0250   -14.259800   10.267000   11.313000
157 1 1 -1.0250   3.996240   -10.267000   -11.313000
158 1 1 -1.0250   3.996240   -10.267000   -3.771000
159 1 1 -1.0250   3.996240   -10.267000   3.771000
160 1 1 -1.0250   3.996240   -10.267000   11.313000
161 1 1 -1.0250   3.996240   10.267000   -11.313000
162 1 1 -1.0250   3.996240   10.267000   -3.771000
163 1 1 -1.0250   3.996240   10.267000   3.771000
164 1 1 -1.0250   3.996240   10.267000   11.313000
165 1 1 -1.0250   -3.996240   -10.267000   -11.313000
166 1 1 -1.0250   -3.996240   -10.267000   -3.771000
167 1 1 -1.0250   -3.996240   -10.267000   3.771000
168 1 1 -1.0250   -3.996240   -10.267000   11.313000
169 1 1 -1.0250   -3.996240   10.267000   -11.313000
170 1 1 -1.0250   -3.996240   10.267000   -3.771000
171 1 1 -1.0250   -3.996240   10.267000   3.771000
172 1 1 -1.0250   -3.996240   10.267000   11.313000
173 1 1 -1.0250   14.259800   -10.267000   -11.313000
174 1 1 -1.0250   14.259800   -10.267000   -3.771000
175 1 1 -1.0250   14.259800   -10.267000   3.771000
176 1 1 -1.0250   14.259800   -10.267000   11.313000
177 1 1 -1.0250   14.259800   10.267000   -11.313000
178 1 1 -1.0250   14.259800   10.267000   -3.771000
179 1 1 -1.0250   14.259800   10.267000   3.771000
180 1 1 -1.0250   14.259800   10.267000   11.313000
181 1 1 -1.0250   -12.289900   -18.901500   -13.198500
182 1 1 -1.0250   -12.289900   -18.901500   -5.656500
183 1 1 -1.0250   -12.289900   -18.901500   1.885500
184 1 1 -1.0250   -12.289900   -18.901500   9.427500
185 1 1 -1.0250   -12.289900   1.632450   -13.198500
186 1 1 -1.0250   -12.289900   1.632450   -5.656500
187 1 1 -1.0250   -12.289900   1.632450   1.885500
188 1 1 -1.0250   -12.289900   1.632450   9.427500
189 1 1 -1.0250   5.966060   -18.901500   -13.198500
190 1 1 -1.0250   5.966060   -18.901500   -5.656500
191 1 1 -1.0250   5.966060   -18.901500   1.885500
192 1 1 -1.0250   5.966060   -18.901500   9.427500
193 1 1 -1.0250   5.966060   1.632450   -13.198500
194 1 1 -1.0250   5.966060   1.632450   -5.656500
195 1 1 -1.0250   5.966060   1.632450   1.885500
196 1 1 -1.0250   5.966060   1.632450   9.427500
197 1 1 -1.0250   -5.966060   -1.632450   -9.427500
198 1 1 -1.0250   -5.966060   -1.632450   -1.885500
199 1 1 -1.0250   -5.966060   -1.632450   5.656500
200 1 1 -1.0250   -5.966060   -1.632450   13.198500
201 1 1 -1.0250   -5.966060   18.901500   -9.427500
202 1 1 -1.0250   -5.966060   18.901500   -1.885500
203 1 1 -1.0250   -5.966060   18.901500   5.656500
204 1 1 -1.0250   -5.966060   18.901500   13.198500
205 1 1 -1.0250   12.289900   -1.632450   -9.427500
206 1 1 -1.0250   12.289900   -1.632450   -1.885500
207 1 1 -1.0250   12.289900   -1.632450   5.656500
208 1 1 -1.0250   12.289900   -1.632450   13.198500
209 1 1 -1.0250   12.289900   18.901500   -9.427500
210 1 1 -1.0250   12.289900   18.901500   -1.885500
211 1 1 -1.0250   12.289900   18.901500   5.656500
212 1 1 -1.0250   12.289900   18.901500   13.198500
213 1 1 -1.0250   -5.966060   -18.901500   -13.198500
214 1 1 -1.0250   -5.966060   -18.901500   -5.656500
215 1 1 -1.0250   -5.966060   -18.901500   1.885500
216 1 1 -1.0250   -5.966060   -18.901500   9.427500
217 1 1 -1.0250   -5.966060   1.632450   -13.198500
218 1 1 -1.0250   -5.966060   1.632450   -5.656500
219 1 1 -1.0250   -5.966060   1.632450   1.885500
220 1 1 -1.0250   -5.966060   1.632450   9.427500
221 1 1 -1.0250   12.289900   -18.901500   -13.198500
222 1 1 -1.0250   12.289900   -18.901500   -5.656500
223 1 1 -1.0250   12.289900   -18.901500   1.885500
224 1 1 -1.0250   12.289900   -18.901500   9.427500
225 1 1 -1.0250   12.289900   1.632450   -13.198500
226 1 1 -1.0250   12.289900   1.632450   -5.656500
227 1 1 -1.0250   12.289900   1.632450   1.885500
228 1 1 -1.0250   12.289900   1.632450   9.427500
229 1 1 -1.0250   -12.289900   -1.632450   -9.427500
230 1 1 -1.0250   -12.289900   -1.632450   -1.885500
231 1 1 -1.0250   -12.289900   -1.632450   5.656500
232 1 1 -1.0250   -12.289900   -1.632450   13.198500
233 1 1 -1.0250   -12.289900   18.901500   -9.427500
234 1 1 -1.0250   -12.289900   18.901500   -1.885500
235 1 1 -1.0250   -12.289900   18.901500   5.656500
236 1 1 -1.0250   -12.289900   18.901500   13.198500
237 1 1 -1.0250   5.966060   -1.632450   -9.427500
238 1 1 -1.0250   5.966060   -1.632450   -1.885500
239 1 1 -1.0250   5.966060   -1.632450   5.656500
240 1 1 -1.0250   5.966060   -1.632450   13.198500
241 1 1 -1.0250   5.966060   18.901500   -9.427500
242 1 1 -1.0250   5.966060   18.901500   -1.885500
243 1 1 -1.0250   5.966060   18.901500   5.656500
244 1 1 -1.0250   5.966060   18.901500   13.198500
245 1 1 -1.0250   -3.161940   -8.634550   -13.198500
246 1 1 -1.0250   -3.161940   -8.634550   -5.656500
247 1 1 -1.0250   -3.161940   -8.634550   1.885500
248 1 1 -1.0250   -3.161940   -8.634550   9.427500
249 1 1 -1.0250   -3.161940   11.899500   -13.198500
250 1 1 -1.0250   -3.161940   11.899500   -5.656500
251 1 1 -1.0250   -3.161940   11.899500   1.885500
252 1 1 -1.0250   -3.161940   11.899500   9.427500
253 1 1 -1.0250   15.094100   -8.634550   -13.198500
254 1 1 -1.0250   15.094100   -8.634550   -5.656500
255 1 1 -1.0250   15.094100   -8.634550   1.885500
256 1 1 -1.0250   15.094100   -8.634550   9.427500
257 1 1 -1.0250   15.094100   11.899500   -13.198500
258 1 1 -1.0250   15.094100   11.899500   -5.656500
259 1 1 -1.0250   15.094100   11.899500   1.885500
260 1 1 -1.0250   15.094100   11.899500   9.427500
261 1 1 -1.0250   -15.094100   -11.899500   -9.427500
262 1 1 -1.0250   -15.094100   -11.899500   -1.885500
263 1 1 -1.0250   -15.094100   -11.899500   5.656500
264 1 1 -1.0250   -15.094100   -11.899500   13.198500
265 1 1 -1.0250   -15.094100   8.634550   -9.427500
266 1 1 -1.0250   -15.094100   8.634550   -1.885500
267 1 1 -1.0250   -15.094100   8.634550   5.656500
268 1 1 -1.0250   -15.094100   8.634550   13.198500
269 1 1 -1.0250   3.161940   -11.899500   -9.427500
270 1 1 -1.0250   3.161940   -11.899500   -1.885500
271 1 1 -1.0250   3.161940   -11.899500   5.656500
272 1 1 -1.0250   3.161940   -11.899500   13.198500
273 1 1 -1.0250   3.161940   8.634550   -9.427500
274 1 1 -1.0250   3.161940   8.634550   -1.885500
275 1 1 -1.0250   3.161940   8.634550   5.656500
276 1 1 -1.0250   3.161940   8.634550   13.198500
277 1 1 -1.0250   -15.094100   -8.634550   -13.198500
278 1 1 -1.0250   -15.094100   -8.634550   -5.656500
279 1 1 -1.0250   -15.094100   -8.634550   1.885500
280 1 1 -1.0250   -15.094100   -8.634550   9.427500
281 1 1 -1.0250   -15.094100   11.899500   -13.198500
282 1 1 -1.0250   -15.094100   11.899500   -5.656500
283 1 1 -1.0250   -15.094100   11.899500   1.885500
284 1 1 -1.0250   -15.094100   11.899500   9.427500
285 1 1 -1.0250   3.161940   -8.634550   -13.198500
286 1 1 -1.0250   3.161940   -8.634550   -5.656500
287 1 1 -1.0250   3.161940   -8.634550   1.885500
288 1 1 -1.0250   3.161940   -8.634550   9.427500
289 1 1 -1.0250   3.161940   11.899500   -13.198500
290 1 1 -1.0250   3.161940   11.899500   -5.656500
291 1 1 -1.0250   3.161940   11.899500   1.885500
292 1 1 -1.0250   3.161940   11.899500   9.427500
293 1 1 -1.0250   -3.161940   -11.899500   -9.427500
294 1 1 -1.0250   -3.161940   -11.899500   -1.885500
295 1 1 -1.0250   -3.161940   -11.899500   5.656500
296 1 1 -1.0250   -3.161940   -11.899500   13.198500
297 1 1 -1.0250   -3.161940   8.634550   -9.427500
298 1 1 -1.0250   -3.161940   8.634550   -1.885500
299 1 1 -1.0250   -3.161940   8.634550   5.656500
300 1 1 -1.0250   -3.161940   8.634550   13.198500
301 1 1 -1.0250   15.094100   -11.899500   -9.427500
302 1 1 -1.0250   15.094100   -11.899500   -1.885500
303 1 1 -1.0250   15.094100   -11.899500   5.656500
304 1 1 -1.0250   15.094100   -11.899500   13.198500
305 1 1 -1.0250   15.094100   8.634550   -9.427500
306 1 1 -1.0250   15.094100   8.634550   -1.885500
307 1 1 -1.0250   15.094100   8.634550   5.656500
308 1 1 -1.0250   15.094100   8.634550   13.198500
309 1 1 -1.0250   -11.397200   -18.636700   -8.112930
310 1 1 -1.0250   -11.397200   -18.636700   -0.570929
311 1 1 -1.0250   -11.397200   -18.636700   6.971070
312 1 1 -1.0250   -11.397200   -18.636700   14.513100
313 1 1 -1.0250   -11.397200   1.897340   -8.112930
314 1 1 -1.0250   -11.397200   1.897340   -0.570929
315 1 1 -1.0250   -11.397200   1.897340   6.971070
316 1 1 -1.0250   -11.397200   1.897340   14.513100
317 1 1 -1.0250   6.858780   -18.636700   -8.112930
318 1 1 -1.0250   6.858780   -18.636700   -0.570929
319 1 1 -1.0250   6.858780   -18.636700   6.971070
320 1 1 -1.0250   6.858780   -18.636700   14.513100
321 1 1 -1.0250   6.858780   1.897340   -8.112930
322 1 1 -1.0250   6.858780   1.897340   -0.570929
323 1 1 -1.0250   6.858780   1.897340   6.971070
324 1 1 -1.0250   6.858780   1.897340   14.513100
325 1 1 -1.0250   -6.858780   -1.897340   -14.513100
326 1 1 -1.0250   -6.858780   -1.897340   -6.971070
327 1 1 -1.0250   -6.858780   -1.897340   0.570929
328 1 1 -1.0250   -6.858780   -1.897340   8.112930
329 1 1 -1.0250   -6.858780   18.636700   -14.513100
330 1 1 -1.0250   -6.858780   18.636700   -6.971070
331 1 1 -1.0250   -6.858780   18.636700   0.570929
332 1 1 -1.0250   -6.858780   18.636700   8.112930
333 1 1 -1.0250   11.397200   -1.897340   -14.513100
334 1 1 -1.0250   11.397200   -1.897340   -6.971070
335 1 1 -1.0250   11.397200   -1.897340   0.570929
336 1 1 -1.0250   11.397200   -1.897340   8.112930
337 1 1 -1.0250   11.397200   18.636700   -14.513100
338 1 1 -1.0250   11.397200   18.636700   -6.971070
339 1 1 -1.0250   11.397200   18.636700   0.570929
340 1 1 -1.0250   11.397200   18.636700   8.112930
341 1 1 -1.0250   -6.858780   -1.897340   -11.883900
342 1 1 -1.0250   -6.858780   -1.897340   -4.341930
343 1 1 -1.0250   -6.858780   -1.897340   3.200070
344 1 1 -1.0250   -6.858780   -1.897340   10.742100
345 1 1 -1.0250   -6.858780   18.636700   -11.883900
346 1 1 -1.0250   -6.858780   18.636700   -4.341930
347 1 1 -1.0250   -6.858780   18.636700   3.200070
348 1 1 -1.0250   -6.858780   18.636700   10.742100
349 1 1 -1.0250   11.397200   -1.897340   -11.883900
350 1 1 -1.0250   11.397200   -1.897340   -4.341930
351 1 1 -1.0250   11.397200   -1.897340   3.200070
352 1 1 -1.0250   11.397200   -1.897340   10.742100
353 1 1 -1.0250   11.397200   18.636700   -11.883900
354 1 1 -1.0250   11.397200   18.636700   -4.341930
355 1 1 -1.0250   11.397200   18.636700   3.200070
356 1 1 -1.0250   11.397200   18.636700   10.742100
357 1 1 -1.0250   -11.397200   -18.636700   -10.742100
358 1 1 -1.0250   -11.397200   -18.636700   -3.200070
359 1 1 -1.0250   -11.397200   -18.636700   4.341930
360 1 1 -1.0250   -11.397200   -18.636700   11.883900
361 1 1 -1.0250   -11.397200   1.897340   -10.742100
362 1 1 -1.0250   -11.397200   1.897340   -3.200070
363 1 1 -1.0250   -11.397200   1.897340   4.341930
364 1 1 -1.0250   -11.397200   1.897340   11.883900
365 1 1 -1.0250   6.858780   -18.636700   -10.742100
366 1 1 -1.0250   6.858780   -18.636700   -3.200070
367 1 1 -1.0250   6.858780   -18.636700   4.341930
368 1 1 -1.0250   6.858780   -18.636700   11.883900
369 1 1 -1.0250   6.858780   1.897340   -10.742100
370 1 1 -1.0250   6.858780   1.897340   -3.200070
371 1 1 -1.0250   6.858780   1.897340   4.341930
372 1 1 -1.0250   6.858780   1.897340   11.883900
373 1 1 -1.0250   -6.858780   -18.636700   -10.742100
374 1 1 -1.0250   -6.858780   -18.636700   -3.200070
375 1 1 -1.0250   -6.858780   -18.636700   4.341930
376 1 1 -1.0250   -6.858780   -18.636700   11.883900
377 1 1 -1.0250   -6.858780   1.897340   -10.742100
378 1 1 -1.0250   -6.858780   1.897340   -3.200070
379 1 1 -1.0250   -6.858780   1.897340   4.341930
380 1 1 -1.0250   -6.858780   1.897340   11.883900
381 1 1 -1.0250   11.397200   -18.636700   -10.742100
382 1 1 -1.0250   11.397200   -18.636700   -3.200070
383 1 1 -1.0250   11.397200   -18.636700   4.341930
384 1 1 -1.0250   11.397200   -18.636700   11.883900
385 1 1 -1.0250   11.397200   1.897340   -10.742100
386 1 1 -1.0250   11.397200   1.897340   -3.200070
387 1 1 -1.0250   11.397200   1.897340   4.341930
388 1 1 -1.0250   11.397200   1.897340   11.883900
389 1 1 -1.0250   -11.397200   -1.897340   -11.883900
390 1 1 -1.0250   -11.397200   -1.897340   -4.341930
391 1 1 -1.0250   -11.397200   -1.897340   3.200070
392 1 1 -1.0250   -11.397200   -1.897340   10.742100
393 1 1 -1.0250   -11.397200   18.636700   -11.883900
394 1 1 -1.0250   -11.397200   18.636700   -4.341930
395 1 1 -1.0250   -11.397200   18.636700   3.200070
396 1 1 -1.0250   -11.397200   18.636700   10.742100
397 1 1 -1.0250   6.858780   -1.897340   -11.883900
398 1 1 -1.0250   6.858780   -1.897340   -4.341930
399 1 1 -1.0250   6.858780   -1.897340   3.200070
400 1 1 -1.0250   6.858780   -1.897340   10.742100
401 1 1 -1.0250   6.858780   18.636700   -11.883900
402 1 1 -1.0250   6.858780   18.636700   -4.341930
403 1 1 -1.0250   6.858780   18.636700   3.200070
404 1 1 -1.0250   6.858780   18.636700   10.742100
405 1 1 -1.0250   -11.397200   -1.897340   -14.513100
406 1 1 -1.0250   -11.397200   -1.897340   -6.971070
407 1 1 -1.0250   -11.397200   -1.897340   0.570929
408 1 1 -1.0250   -11.397200   -1.897340   8.112930
409 1 1 -1.0250   -11.397200   18.636700   -14.513100
410 1 1 -1.0250   -11.397200   18.636700   -6.971070
411 1 1 -1.0250   -11.397200   18.636700   0.570929
412 1 1 -1.0250   -11.397200   18.636700   8.112930
413 1 1 -1.0250   6.858780   -1.897340   -14.513100
414 1 1 -1.0250   6.858780   -1.897340   -6.971070
415 1 1 -1.0250   6.858780   -1.897340   0.570929
416 1 1 -1.0250   6.858780   -1.897340   8.112930
417 1 1 -1.0250   6.858780   18.636700   -14.513100
418 1 1 -1.0250   6.858780   18.636700   -6.971070
419 1 1 -1.0250   6.858780   18.636700   0.570929
420 1 1 -1.0250   6.858780   18.636700   8.112930
421 1 1 -1.0250   -6.858780   -18.636700   -8.112930
422 1 1 -1.0250   -6.858780   -18.636700   -0.570929
423 1 1 -1.0250   -6.858780   -18.636700   6.971070
424 1 1 -1.0250   -6.858780   -18.636700   14.513100
425 1 1 -1.0250   -6.858780   1.897340   -8.112930
426 1 1 -1.0250   -6.858780   1.897340   -0.570929
427 1 1 -1.0250   -6.858780   1.897340   6.971070
428 1 1 -1.0250   -6.858780   1.897340   14.513100
429 1 1 -1.0250   11.397200   -18.636700   -8.112930
430 1 1 -1.0250   11.397200   -18.636700   -0.570929
431 1 1 -1.0250   11.397200   -18.636700   6.971070
432 1 1 -1.0250   11.397200   -18.636700   14.513100
433 1 1 -1.0250   11.397200   1.897340   -8.112930
434 1 1 -1.0250   11.397200   1.897340   -0.570929
435 1 1 -1.0250   11.397200   1.897340   6.971070
436 1 1 -1.0250   11.397200   1.897340   14.513100
437 1 1 -1.0250   -2.269220   -8.369660   -8.112930
438 1 1 -1.0250   -2.269220   -8.369660   -0.570929
439 1 1 -1.0250   -2.269220   -8.369660   6.971070
440 1 1 -1.0250   -2.269220   -8.369660   14.513100
441 1 1 -1.0250   -2.269220   12.164300   -8.112930
442 1 1 -1.0250   -2.269220   12.164300   -0.570929
443 1 1 -1.0250   -2.269220   12.164300   6.971070
444 1 1 -1.0250   -2.269220   12.164300   14.513100
445 1 1 -1.0250   15.986800   -8.369660   -8.112930
446 1 1 -1.0250   15.986800   -8.369660   -0.570929
447 1 1 -1.0250   15.986800   -8.369660   6.971070
448 1 1 -1.0250   15.986800   -8.369660   14.513100
449 1 1 -1.0250   15.986800   12.164300   -8.112930
450 1 1 -1.0250   15.986800   12.164300   -0.570929
451 1 1 -1.0250   15.986800   12.164300   6.971070
452 1 1 -1.0250   15.986800   12.164300   14.513100
453 1 1 -1.0250   -15.986800   -12.164300   -14.513100
454 1 1 -1.0250   -15.986800   -12.164300   -6.971070
455 1 1 -1.0250   -15.986800   -12.164300   0.570929
456 1 1 -1.0250   -15.986800   -12.164300   8.112930
457 1 1 -1.0250   -15.986800   8.369660   -14.513100
458 1 1 -1.0250   -15.986800   8.369660   -6.971070
459 1 1 -1.0250   -15.986800   8.369660   0.570929
460 1 1 -1.0250   -15.986800   8.369660   8.112930
461 1 1 -1.0250   2.269220   -12.164300   -14.513100
462 1 1 -1.0250   2.269220   -12.164300   -6.971070
463 1 1 -1.0250   2.269220   -12.164300   0.570929
464 1 1 -1.0250   2.269220   -12.164300   8.112930
465 1 1 -1.0250   2.269220   8.369660   -14.513100
466 1 1 -1.0250   2.269220   8.369660   -6.971070
467 1 1 -1.0250   2.269220   8.369660   0.570929
468 1 1 -1.0250   2.269220   8.369660   8.112930
469 1 1 -1.0250   -15.986800   -12.164300   -11.883900
470 1 1 -1.0250   -15.986800   -12.164300   -4.341930
471 1 1 -1.0250   -15.986800   -12.164300   3.200070
472 1 1 -1.0250   -15.986800   -12.164300   10.742100
473 1 1 -1.0250   -15.986800   8.369660   -11.883900
474 1 1 -1.0250   -15.986800   8.369660   -4.341930
475 1 1 -1.0250   -15.986800   8.369660   3.200070
476 1 1 -1.0250   -15.986800   8.369660   10.742100
477 1 1 -1.0250   2.269220   -12.164300   -11.883900
478 1 1 -1.0250   2.269220   -12.164300   -4.341930
479 1 1 -1.0250   2.269220   -12.164300   3.200070
480 1 1 -1.0250   2.269220   -12.164300   10.742100
481 1 1 -1.0250   2.269220   8.369660   -11.883900
482 1 1 -1.0250   2.269220   8.369660   -4.341930
483 1 1 -1.0250   2.269220   8.369660   3.200070
484 1 1 -1.0250   2.269220   8.369660   10.742100
485 1 1 -1.0250   -2.269220   -8.369660   -10.742100
486 1 1 -1.0250   -2.269220   -8.369660   -3.200070
487 1 1 -1.0250   -2.269220   -8.369660   4.341930
488 1 1 -1.0250   -2.269220   -8.369660   11.883900
489 1 1 -1.0250   -2.269220   12.164300   -10.742100
490 1 1 -1.0250   -2.269220   12.164300   -3.200070
491 1 1 -1.0250   -2.269220   12.164300   4.341930
492 1 1 -1.0250   -2.269220   12.164300   11.883900
493 1 1 -1.0250   15.986800   -8.369660   -10.742100
494 1 1 -1.0250   15.986800   -8.369660   -3.200070
495 1 1 -1.0250   15.986800   -8.369660   4.341930
496 1 1 -1.0250   15.986800   -8.369660   11.883900
497 1 1 -1.0250   15.986800   12.164300   -10.742100
498 1 1 -1.0250   15.986800   12.164300   -3.200070
499 1 1 -1.0250   15.986800   12.164300   4.341930
500 1 1 -1.0250   15.986800   12.164300   11.883900
501 1 1 -1.0250   -15.986800   -8.369660   -10.742100
502 1 1 -1.0250   -15.986800   -8.369660   -3.200070
503 1 1 -1.0250   -15.986800   -8.369660   4.341930
504 1 1 -1.0250   -15.986800   -8.369660   11.883900
505 1 1 -1.0250   -15.986800   12.164300   -10.742100
506 1 1 -1.0250   -15.986800   12.164300   -3.200070
507 1 1 -1.0250   -15.986800   12.164300   4.341930
508 1 1 -1.0250   -15.986800   12.164300   11.883900
509 1 1 -1.0250   2.269220   -8.369660   -10.742100
510 1 1 -1.0250   2.269220   -8.369660   -3.200070
511 1 1 -1.0250   2.269220   -8.369660   4.341930
512 1 1 -1.0250   2.269220   -8.369660   11.883900
513 1 1 -1.0250   2.269220   12.164300   -10.742100
514 1 1 -1.0250   2.269220   12.164300   -3.200070
515 1 1 -1.0250   2.269220   12.164300   4.341930
516 1 1 -1.0250   2.269220   12.164300   11.883900
517 1 1 -1.0250   -2.269220   -12.164300   -11.883900
518 1 1 -1.0250   -2.269220   -12.164300   -4.341930
519 1 1 -1.0250   -2.269220   -12.164300   3.200070
520 1 1 -1.0250   -2.269220   -12.164300   10.742100
521 1 1 -1.0250   -2.269220   8.369660   -11.883900
522 1 1 -1.0250   -2.269220   8.369660   -4.341930
523 1 1 -1.0250   -2.269220   8.369660   3.200070
524 1 1 -1.0250   -2.269220   8.369660   10.742100
525 1 1 -1.0250   15.986800   -12.164300   -11.883900
526 1 1 -1.0250   15.986800   -12.164300   -4.341930
527 1 1 -1.0250   15.986800   -12.164300   3.200070
528 1 1 -1.0250   15.986800   -12.164300   10.742100
529 1 1 -1.0250   15.986800   8.369660   -11.883900
530 1 1 -1.0250   15.986800   8.369660   -4.341930
531 1 1 -1.0250   15.986800   8.369660   3.200070
532 1 1 -1.0250   15.986800   8.369660   10.742100
533 1 1 -1.0250   -2.269220   -12.164300   -14.513100
534 1 1 -1.0250   -2.269220   -12.164300   -6.971070
535 1 1 -1.0250   -2.269220   -12.164300   0.570929
536 1 1 -1.0250   -2.269220   -12.164300   8.112930
537 1 1 -1.0250   -2.269220   8.369660   -14.513100
538 1 1 -1.0250   -2.269220   8.369660   -6.971070
539 1 1 -1.0250   -2.269220   8.369660   0.570929
540 1 1 -1.0250   -2.269220   8.369660   8.112930
541 1 1 -1.0250   15.986800   -12.164300   -14.513100
542 1 1 -1.0250   15.986800   -12.164300   -6.971070
543 1 1 -1.0250   15.986800   -12.164300   0.570929
544 1 1 -1.0250   15.986800   -12.164300   8.112930
545 1 1 -1.0250   15.986800   8.369660   -14.513100
546 1 1 -1.0250   15.986800   8.369660   -6.971070
547 1 1 -1.0250   15.986800   8.369660   0.570929
548 1 1 -1.0250   15.986800   8.369660   8.112930
549 1 1 -1.0250   -15.986800   -8.369660   -8.112930
550 1 1 -1.0250   -15.986800   -8.369660   -0.570929
551 1 1 -1.0250   -15.986800   -8.369660   6.971070
552 1 1 -1.0250   -15.986800   -8.369660   14.513100
553 1 1 -1.0250   -15.986800   12.164300   -8.112930
554 1 1 -1.0250   -15.986800   12.164300   -0.570929
555 1 1 -1.0250   -15.986800   12.164300   6.971070
556 1 1 -1.0250   -15.986800   12.164300   14.513100
557 1 1 -1.0250   2.269220   -8.369660   -8.112930
558 1 1 -1.0250   2.269220   -8.369660   -0.570929
559 1 1 -1.0250   2.269220   -8.369660   6.971070
560 1 1 -1.0250   2.269220   -8.369660   14.513100
561 1 1 -1.0250   2.269220   12.164300   -8.112930
562 1 1 -1.0250   2.269220   12.164300   -0.570929
563 1 1 -1.0250   2.269220   12.164300   6.971070
564 1 1 -1.0250   2.269220   12.164300   14.513100
565 1 1 -1.0250   -13.891000   -18.022700   -7.548030
566 1 1 -1.0250   -13.891000   -18.022700   -0.006034
567 1 1 -1.0250   -13.891000   -18.022700   7.535970
568 1 1 -1.0250   -13.891000   -18.022700   15.078000
569 1 1 -1.0250   -13.891000   2.511310   -7.548030
570 1 1 -1.0250   -13.891000   2.511310   -0.006034
571 1 1 -1.0250   -13.891000   2.511310   7.535970
572 1 1 -1.0250   -13.891000   2.511310   15.078000
573 1 1 -1.0250   4.365010   -18.022700   -7.548030
574 1 1 -1.0250   4.365010   -18.022700   -0.006034
575 1 1 -1.0250   4.365010   -18.022700   7.535970