LAMMPS Description

1050 atoms
700 bonds
370 angles
0 dihedrals
0 impropers

8 atom types
4 bond types
3 angle types

0.0 21.5443469003 xlo xhi
0.0 21.5443469003  ylo yhi
0.0 21.5443469003  zlo zhi

Masses

1 15.035
2 12.011
3 14.007
4 12.011
5 15.999
6 35.45
7 15.999
8 6.94

Atoms

1 1 1 0.269 18.632471 2.084961 17.233198
2 1 2 0.129 19.031405 3.507862 17.666563
3 1 3 -0.398 19.331123 4.576885 17.992149
4 2 1 0.269 8.273662 15.362393 8.141302
5 2 2 0.129 9.373506 14.284524 8.153241
6 2 3 -0.398 10.199818 13.474723 8.162211
7 3 1 0.269 16.023846 10.639046 7.797037
8 3 2 0.129 15.718403 12.014164 7.174658
9 3 3 -0.398 15.488924 13.047288 6.707066
10 4 1 0.269 2.387787 14.288216 14.311012
11 4 2 0.129 3.741395 13.729225 13.834699
12 4 3 -0.398 4.75836 13.309256 13.476846
13 5 1 0.269 7.552556 1.996605 11.909607
14 5 2 0.129 6.961616 3.418641 11.895376
15 5 3 -0.398 6.517644 4.487016 11.884684
16 6 1 0.269 16.793222 3.839597 13.939059
17 6 2 0.129 18.246538 4.108216 13.50626
18 6 3 -0.398 19.338413 4.310028 13.181099
19 7 1 0.269 6.060059 13.306271 4.239049
20 7 2 0.129 4.615195 13.309905 3.706177
21 7 3 -0.398 3.52967 13.312636 3.30583
22 8 1 0.269 17.0057 1.999584 15.361546
23 8 2 0.129 18.33383 2.777226 15.307273
24 8 3 -0.398 19.331652 3.361467 15.266499
25 9 1 0.269 13.096604 3.671435 7.728939
26 9 2 0.129 14.384666 3.681829 8.57297
27 9 3 -0.398 15.352385 3.689638 9.20709
28 10 1 0.269 6.57908 15.88747 5.91462
29 10 2 0.129 6.633699 14.899311 7.094517
30 10 3 -0.398 6.674733 14.156908 7.980972
31 11 1 0.269 6.576098 6.569508 5.74153
32 11 2 0.129 6.723191 5.192889 5.067078
33 11 3 -0.398 6.833702 4.158638 4.560363
34 12 1 0.269 18.816219 7.978498 6.070144
35 12 2 0.129 19.110861 7.886795 4.561377
36 12 3 -0.398 19.332225 7.817899 3.427843
37 13 1 0.269 15.5338 15.128336 16.930966
38 13 2 0.129 15.170995 14.474608 18.277299
39 13 3 -0.398 14.898421 13.983463 19.288797
40 14 1 0.269 19.32867 9.844726 6.573798
41 14 2 0.129 19.332153 10.063112 5.049365
42 14 3 -0.398 19.33477 10.227185 3.90406
43 15 1 0.269 1.999982 12.009516 18.762996
44 15 2 0.129 2.000001 13.519888 19.063624
45 15 3 -0.398 2.000015 14.654628 19.289485
46 16 1 0.269 19.32981 16.103878 7.504403
47 16 2 0.129 19.331176 15.918519 9.033206
48 16 3 -0.398 19.332202 15.779259 10.181794
49 17 1 0.269 10.06944 4.25067 10.633516
50 17 2 0.129 10.877354 3.928013 11.904251
51 17 3 -0.398 11.484338 3.685602 12.858953
52 18 1 0.269 9.371804 19.331468 2.001068
53 18 2 0.129 8.254573 19.332073 3.060971
54 18 3 -0.398 7.415198 19.332528 3.857274
55 19 1 0.269 14.506474 13.894658 11.935159
56 19 2 0.129 15.190241 15.159478 12.486787
57 19 3 -0.398 15.703954 16.109735 12.901225
58 20 1 0.269 1.999175 3.406223 13.688484
59 20 2 0.129 1.998081 3.717283 15.196742
60 20 3 -0.398 1.99726 3.950982 16.329893
61 21 1 0.269 18.282313 6.381954 2.259405
62 21 2 0.129 18.823022 5.893276 3.616029
63 21 3 -0.398 19.229256 5.526133 4.635258
64 22 1 0.269 4.042003 12.177504 10.379351
65 22 2 0.129 3.624078 13.510661 9.731563
66 22 3 -0.398 3.310092 14.512261 9.244881
67 23 1 0.269 8.250522 13.706806 9.770957
68 23 2 0.129 8.101194 12.403474 8.964342
69 23 3 -0.398 7.989004 11.424283 8.358334
70 24 1 0.269 17.512014 14.961929 17.17293
71 24 2 0.129 17.283413 13.556587 16.586113
72 24 3 -0.398 17.111665 12.500755 16.145238
73 25 1 0.269 13.758322 5.030737 16.686964
74 25 2 0.129 12.527526 4.187375 17.068389
75 25 3 -0.398 11.602832 3.553759 17.354953
76 26 1 0.269 14.346133 3.271255 17.433958
77 26 2 0.129 14.841481 4.335929 18.430301
78 26 3 -0.398 15.213635 5.135818 19.178852
79 27 1 0.269 6.447912 12.959932 6.170087
80 27 2 0.129 6.219836 11.874663 7.238625
81 27 3 -0.398 6.048484 11.059302 8.041417
82 28 1 0.269 8.506246 6.051557 5.891445
83 28 2 0.129 8.630028 4.635897 5.297993
84 28 3 -0.398 8.723025 3.572314 4.852134
85 29 1 0.269 4.715499 6.059489 6.268719
86 29 2 0.129 4.428461 6.350748 4.784004
87 29 3 -0.398 4.212809 6.569571 3.66854
88 30 1 0.269 19.331299 19.331345 11.796183
89 30 2 0.129 19.331515 17.795182 11.904819
90 30 3 -0.398 19.331678 16.641064 11.986438
91 31 1 0.269 16.256724 3.983118 5.364505
92 31 2 0.129 16.568594 5.047522 4.29615
93 31 3 -0.398 16.802902 5.847206 3.493496
94 32 1 0.269 19.331598 14.754299 5.466436
95 32 2 0.129 19.331686 16.293579 5.513536
96 32 3 -0.398 19.331751 17.450037 5.548921
97 33 1 0.269 1.993261 6.348129 11.0705
98 33 2 0.129 2.464756 5.6936 12.382325
99 33 3 -0.398 2.81899 5.201854 13.367897
100 34 1 0.269 19.330164 8.962156 15.840056
101 34 2 0.129 19.330947 7.731523 16.765876
102 34 3 -0.398 19.331535 6.806951 17.461444
103 35 1 0.269 18.745298 1.999813 9.230769
104 35 2 0.129 19.079838 2.575884 10.61923
105 35 3 -0.398 19.331177 3.008685 11.662379
106 36 1 0.269 10.843584 10.153524 3.769236
107 36 2 0.129 10.600375 8.666571 4.087702
108 36 3 -0.398 10.417652 7.549425 4.326965
109 37 1 0.269 10.69543 10.707612 14.684113
110 37 2 0.129 9.856448 11.762902 13.939753
111 37 3 -0.398 9.226121 12.555739 13.380516
112 38 1 0.269 17.931147 17.186279 10.419652
113 38 2 0.129 17.421245 15.970009 9.624486
114 38 3 -0.398 17.038156 15.056227 9.02708
115 39 1 0.269 9.635425 17.18805 8.603671
116 39 2 0.129 8.219683 17.358874 9.18513
117 39 3 -0.398 7.156038 17.487214 9.621979
118 40 1 0.269 14.630818 17.135911 17.655479
119 40 2 0.129 14.654226 18.389813 18.549224
120 40 3 -0.398 14.671811 19.331868 19.220694
121 41 1 0.269 16.411623 1.999381 9.064968
122 41 2 0.129 15.542131 1.999472 10.336024
123 41 3 -0.398 14.888883 1.99954 11.290967
124 42 1 0.269 10.07176 11.483612 8.024593
125 42 2 0.129 11.513986 11.261608 7.532357
126 42 3 -0.398 12.597529 11.094817 7.16254
127 43 1 0.269 19.228418 10.103663 9.891981
128 43 2 0.129 19.287164 9.013077 8.806269
129 43 3 -0.398 19.3313 8.193722 7.990574
130 44 1 0.269 19.333019 11.902952 13.224452
131 44 2 0.129 18.469464 10.712959 13.682479
132 44 3 -0.398 17.820676 9.818918 14.026595
133 45 1 0.269 11.599784 9.424563 10.009041
134 45 2 0.129 12.665976 8.927115 11.002711
135 45 3 -0.398 13.467005 8.553382 11.749254
136 46 1 0.269 3.958315 19.343417 2.712726
137 46 2 0.129 5.443517 19.33438 2.30567
138 46 3 -0.398 6.559347 19.327591 1.99985
139 47 1 0.269 19.336088 2.430843 7.369518
140 47 2 0.129 19.332453 3.695033 8.248957
141 47 3 -0.398 19.329722 4.644816 8.909678
142 48 1 0.269 2.13842 10.550655 15.108386
143 48 2 0.129 2.058946 10.020331 13.664765
144 48 3 -0.398 1.999238 9.621899 12.580175
145 49 1 0.269 19.331312 15.735054 16.649523
146 49 2 0.129 19.331636 14.197175 16.730335
147 49 3 -0.398 19.331879 13.041769 16.791048
148 50 1 0.269 4.950585 14.816359 10.462969
149 50 2 0.129 6.406297 15.234771 10.184697
150 50 3 -0.398 7.499971 15.549123 9.975631
151 51 1 0.269 13.527378 2.011183 9.826224
152 51 2 0.129 12.873185 2.004243 11.220348
153 51 3 -0.398 12.38169 1.99903 12.267752
154 52 1 0.269 15.843057 4.205476 7.308617
155 52 2 0.129 16.723834 2.942225 7.314123
156 52 3 -0.398 17.385559 1.993147 7.31826
157 53 1 0.269 19.064093 14.659165 11.995879
158 53 2 0.129 19.21816 14.001109 13.379651
159 53 3 -0.398 19.33391 13.506712 14.419278
160 54 1 0.269 3.376768 9.321617 7.100984
161 54 2 0.129 3.996687 10.052279 8.306568
162 54 3 -0.398 4.462431 10.601224 9.212322
163 55 1 0.269 12.704632 10.363679 19.332595
164 55 2 0.129 11.863218 11.60197 18.971682
165 55 3 -0.398 11.231065 12.532296 18.700528
166 56 1 0.269 1.995489 15.747817 12.820558
167 56 2 0.129 3.015337 14.735561 12.266618
168 56 3 -0.398 3.781547 13.975055 11.850444
169 57 1 0.269 16.758721 8.800201 19.333182
170 57 2 0.129 17.021748 7.320144 18.998743
171 57 3 -0.398 17.21936 6.20818 18.747479
172 58 1 0.269 8.010354 15.46283 14.080784
173 58 2 0.129 7.260815 16.790863 14.295543
174 58 3 -0.398 6.697687 17.788612 14.456891
175 59 1 0.269 7.337796 15.981835 3.811294
176 59 2 0.129 7.954511 17.193976 4.533774
177 59 3 -0.398 8.417848 18.104656 5.076572
178 60 1 0.269 14.002884 15.710254 10.959549
179 60 2 0.129 12.465047 15.781235 10.919301
180 60 3 -0.398 11.309672 15.834563 10.889064
181 61 1 0.269 14.200737 8.043616 9.029197
182 61 2 0.129 12.988145 8.798192 8.453145
183 61 3 -0.398 12.077126 9.365103 8.020358
184 62 1 0.269 3.928677 6.563323 17.740196
185 62 2 0.129 5.107102 5.786654 17.123999
186 62 3 -0.398 5.992451 5.203143 16.661051
187 63 1 0.269 16.039363 18.858753 16.916061
188 63 2 0.129 15.660183 17.662407 16.023548
189 63 3 -0.398 15.375306 16.763594 15.353005
190 64 1 0.269 4.917263 17.308202 13.683201
191 64 2 0.129 5.376246 16.321125 14.772519
192 64 3 -0.398 5.721079 15.579535 15.590922
193 65 1 0.269 17.448761 11.709717 9.65496
194 65 2 0.129 16.451542 12.731297 9.07744
195 65 3 -0.398 15.702332 13.498808 8.643551
196 66 1 0.269 10.217389 12.453257 16.464869
197 66 2 0.129 8.934452 11.929726 15.792866
198 66 3 -0.398 7.970582 11.536398 15.287992
199 67 1 0.269 18.977295 12.192792 3.822028
200 67 2 0.129 19.180432 13.309039 2.780718
201 67 3 -0.398 19.333048 14.147675 1.998384
202 68 1 0.269 9.306415 8.850534 10.216041
203 68 2 0.129 9.724779 9.227463 8.782689
204 68 3 -0.398 10.039095 9.510649 7.705814
205 69 1 0.269 6.587513 5.705617 3.138825
206 69 2 0.129 8.034579 5.910533 3.624221
207 69 3 -0.398 9.121758 6.064487 3.988898
208 70 1 0.269 1.995558 8.322416 17.667508
209 70 2 0.129 2.251251 8.467272 16.155808
210 70 3 -0.398 2.443352 8.576102 15.020069
211 71 1 0.269 2.973797 17.24922 7.844601
212 71 2 0.129 3.293118 16.658139 9.230335
213 71 3 -0.398 3.533024 16.214061 10.271435
214 72 1 0.269 5.121664 4.670804 14.004549
215 72 2 0.129 6.56455 5.154701 13.76891
216 72 3 -0.398 7.648588 5.518251 13.591876
217 73 1 0.269 17.129345 15.779303 4.856897
218 73 2 0.129 15.766247 15.068784 4.950311
219 73 3 -0.398 14.742153 14.534972 5.020493
220 74 1 0.269 4.162183 17.881582 11.212042
221 74 2 0.129 2.937416 18.709516 10.780685
222 74 3 -0.398 2.01725 19.331542 10.456606
223 75 1 0.269 14.278089 18.317147 14.734771
224 75 2 0.129 12.868632 18.22633 15.348599
225 75 3 -0.398 11.809709 18.1581 15.809767
226 76 1 0.269 15.44856 3.863837 15.419061
227 76 2 0.129 16.867246 4.220177 15.900675
228 76 3 -0.398 17.933103 4.487894 16.262511
229 77 1 0.269 3.813633 12.637597 19.325085
230 77 2 0.129 4.504566 11.261305 19.330989
231 77 3 -0.398 5.023663 10.2273 19.335424
232 78 1 0.269 7.880225 17.679319 1.998787
233 78 2 0.129 8.41628 16.236034 2.033077
234 78 3 -0.398 8.819017 15.151697 2.058839
235 79 1 0.269 9.358789 15.030836 19.227135
236 79 2 0.129 10.838165 14.607157 19.286657
237 79 3 -0.398 11.949618 14.288847 19.331377
238 80 1 0.269 17.668915 3.671064 9.450163
239 80 2 0.129 17.1552 3.094089 10.782378
240 80 3 -0.398 16.769246 2.660608 11.783269
241 81 1 0.269 2.000503 8.441668 10.583134
242 81 2 0.129 1.999574 9.331371 9.326143
243 81 3 -0.398 1.998876 9.999805 8.381767
244 82 1 0.269 11.738224 7.541323 16.581756
245 82 2 0.129 11.038806 8.913304 16.590773
246 82 3 -0.398 10.513334 9.944072 16.597546
247 83 1 0.269 6.388685 2.000945 17.40594
248 83 2 0.129 5.614717 2.871118 16.398283
249 83 3 -0.398 5.033236 3.524878 15.641232
250 84 1 0.269 5.363635 4.459924 8.292729
251 84 2 0.129 4.558914 3.683249 7.234051
252 84 3 -0.398 3.954329 3.099734 6.438667
253 85 1 0.269 1.998865 9.716222 19.332992
254 85 2 0.129 3.062641 8.60268 19.335075
255 85 3 -0.398 3.861854 7.766077 19.33664
256 86 1 0.269 9.071111 8.198743 5.817727
257 86 2 0.129 7.612614 8.278758 6.305563
258 86 3 -0.398 6.516847 8.338873 6.672073
259 87 1 0.269 14.230516 17.192805 9.523184
260 87 2 0.129 12.699279 17.355979 9.540103
261 87 3 -0.398 11.548863 17.478572 9.552815
262 88 1 0.269 1.999529 18.121033 6.316298
263 88 2 0.129 3.358376 18.812237 6.533944
264 88 3 -0.398 4.379277 19.331538 6.697461
265 89 1 0.269 11.632282 16.819323 1.999129
266 89 2 0.129 10.52092 17.488733 2.828807
267 89 3 -0.398 9.685956 17.99166 3.452143
268 90 1 0.269 17.55153 6.759955 5.107942
269 90 2 0.129 16.420848 7.788159 5.297562
270 90 3 -0.398 15.571368 8.560647 5.440023
271 91 1 0.269 1.998636 14.421737 16.268179
272 91 2 0.129 2.010263 15.826812 15.637919
273 91 3 -0.398 2.018999 16.882443 15.164405
274 92 1 0.269 1.997996 17.014236 11.272977
275 92 2 0.129 2.591103 17.733081 12.498981
276 92 3 -0.398 3.036704 18.273148 13.420077
277 93 1 0.269 8.805145 8.178073 12.031552
278 93 2 0.129 9.229735 9.658336 12.043625
279 93 3 -0.398 9.548728 10.770455 12.052696
280 94 1 0.269 15.970731 10.55765 13.849406
281 94 2 0.129 16.840174 11.812967 14.049022
282 94 3 -0.398 17.493386 12.756086 14.198994
283 95 1 0.269 2.089716 19.332241 1.999981
284 95 2 0.129 2.038606 19.322695 3.539103
285 95 3 -0.398 2.000207 19.315523 4.695444
286 96 1 0.269 11.320353 17.025217 5.264753
287 96 2 0.129 10.533565 18.343235 5.388835
288 96 3 -0.398 9.942453 19.333459 5.482058
289 97 1 0.269 7.946145 1.995141 6.307123
290 97 2 0.129 9.42153 1.99676 5.865719
291 97 3 -0.398 10.529984 1.997976 5.534092
292 98 1 0.269 19.335028 19.334347 7.600581
293 98 2 0.129 18.955299 19.332893 6.108132
294 98 3 -0.398 18.670008 19.331801 4.986858
295 99 1 0.269 14.70459 10.366697 19.331117
296 99 2 0.129 14.759142 8.827865 19.306225
297 99 3 -0.398 14.800127 7.671742 19.287523
298 100 1 0.269 13.690072 13.807333 10.111604
299 100 2 0.129 13.728952 13.179841 8.70578
300 100 3 -0.398 13.758161 12.708407 7.649586
301 101 1 0.269 18.369735 19.163247 1.999854
302 101 2 0.129 18.808298 17.687015 1.999863
303 101 3 -0.398 19.137791 16.577923 1.99987
304 102 1 0.269 2.06372 12.898448 7.681116
305 102 2 0.129 2.040862 12.304931 9.101966
306 102 3 -0.398 2.023689 11.859021 10.169448
307 103 1 0.269 17.167917 9.447725 11.627607
308 103 2 0.129 16.585007 8.753574 10.38263
309 103 3 -0.398 16.147066 8.232059 9.447279
310 104 1 0.269 5.854289 11.187889 12.763366
311 104 2 0.129 6.483648 9.888602 12.227306
312 104 3 -0.398 6.956484 8.912449 11.824565
313 105 1 0.269 8.264492 14.105062 3.737397
314 105 2 0.129 7.977079 12.813964 4.526105
315 105 3 -0.398 7.761146 11.843964 5.11866
316 106 1 0.269 9.347458 17.423355 17.164806
317 106 2 0.129 8.384644 16.496568 17.930087
318 106 3 -0.398 7.661284 15.800274 18.505042
319 107 1 0.269 4.328375 1.999846 3.986975
320 107 2 0.129 3.149206 1.997305 4.977507
321 107 3 -0.398 2.263298 1.995396 5.721692
322 108 1 0.269 16.125207 1.992678 13.563772
323 108 2 0.129 17.660749 1.999523 13.446885
324 108 3 -0.398 18.8144 2.004666 13.359069
325 109 1 0.269 11.855551 16.328273 19.332083
326 109 2 0.129 13.387389 16.169934 19.3326
327 109 3 -0.398 14.538257 16.050974 19.332989
328 110 1 0.269 11.642227 3.90913 9.446941
329 110 2 0.129 12.643004 3.912925 10.617424
330 110 3 -0.398 13.394886 3.915777 11.496806
331 111 1 0.269 7.204088 10.381394 16.728817
332 111 2 0.129 6.840918 9.599689 18.005001
333 111 3 -0.398 6.56807 9.012395 18.963796
334 112 1 0.269 19.336853 5.770171 15.643159
335 112 2 0.129 18.868937 7.023825 14.880921
336 112 3 -0.398 18.517393 7.965693 14.308253
337 113 1 0.269 4.000057 19.331001 4.712114
338 113 2 0.129 5.190563 18.417684 5.058734
339 113 3 -0.398 6.084989 17.731509 5.319149
340 114 1 0.269 4.307465 12.014803 7.806064
341 114 2 0.129 5.219345 12.691184 8.846537
342 114 3 -0.398 5.904439 13.199349 9.628243
343 115 1 0.269 10.57179 15.991986 17.836087
344 115 2 0.129 10.756062 16.24356 16.32799
345 115 3 -0.398 10.894505 16.432567 15.19496
346 116 1 0.269 1.997118 10.91659 17.069449
347 116 2 0.129 3.18791 10.032164 17.48346
348 116 3 -0.398 4.082551 9.367697 17.794505
349 117 1 0.269 1.999527 15.33193 3.804954
350 117 2 0.129 1.999651 16.475372 2.773382
351 117 3 -0.398 1.999744 17.334439 1.998363
352 118 1 0.269 9.382174 12.961166 19.331116
353 118 2 0.129 9.227087 11.731034 18.417703
354 118 3 -0.398 9.11057 10.806837 17.731456
355 119 1 0.269 8.700676 15.92144 16.004479
356 119 2 0.129 9.572966 14.931533 15.210252
357 119 3 -0.398 10.228315 14.187817 14.613551
358 120 1 0.269 14.193065 6.083622 12.185414
359 120 2 0.129 13.397373 6.683512 11.011273
360 120 3 -0.398 12.799571 7.134208 10.129142
361 121 1 0.269 13.631537 16.762423 7.429414
362 121 2 0.129 12.177172 17.261926 7.34623
363 121 3 -0.398 11.08451 17.637202 7.283734
364 122 1 0.269 17.085779 19.310106 6.818162
365 122 2 0.129 17.677727 18.223296 7.7347
366 122 3 -0.398 18.122457 17.406777 8.423294
367 123 1 0.269 5.223179 15.486696 8.592125
368 123 2 0.129 4.540924 15.978889 7.302213
369 123 3 -0.398 4.028347 16.348673 6.333103
370 124 1 0.269 16.760645 4.464256 17.882578
371 124 2 0.129 16.333948 3.05402 17.43451
372 124 3 -0.398 16.013372 1.994512 17.097878
373 125 1 0.269 15.486966 17.051299 3.567481
374 125 2 0.129 15.725672 18.28152 2.672397
375 125 3 -0.398 15.905011 19.205784 1.999921
376 126 1 0.269 11.282775 7.741937 8.975894
377 126 2 0.129 10.056358 7.369529 8.122187
378 126 3 -0.398 9.134953 7.089738 7.480799
379 127 1 0.269 14.970361 19.258985 4.249544
380 127 2 0.129 16.016726 18.413928 4.99961
381 127 3 -0.398 16.802859 17.779039 5.563134
382 128 1 0.269 12.212941 5.399456 12.130334
383 128 2 0.129 11.575057 5.684267 10.757895
384 128 3 -0.398 11.095815 5.898245 9.726784
385 129 1 0.269 6.401794 17.686298 3.344999
386 129 2 0.129 5.425309 16.58629 3.801135
387 129 3 -0.398 4.691676 15.759856 4.143829
388 130 1 0.269 12.595036 9.620644 13.198402
389 130 2 0.129 11.907312 10.951887 12.842836
390 130 3 -0.398 11.390625 11.952048 12.5757
391 131 1 0.269 7.499427 14.86328 12.086315
392 131 2 0.129 7.299769 13.545154 12.85721
393 131 3 -0.398 7.149766 12.554847 13.436382
394 132 1 0.269 19.331502 1.999538 1.999308
395 132 2 0.129 19.331473 3.539499 2.010272
396 132 3 -0.398 19.331451 4.69647 2.01851
397 133 1 0.269 5.75764 9.106039 8.355794
398 133 2 0.129 5.510497 7.591221 8.229901
399 133 3 -0.398 5.324819 6.453141 8.135318
400 134 1 0.269 9.080132 4.631816 17.5789
401 134 2 0.129 10.253294 5.229019 16.779752
402 134 3 -0.398 11.13469 5.677697 16.179353
403 135 1 0.269 17.136748 19.333789 3.62173
404 135 2 0.129 17.872097 17.986004 3.741471
405 135 3 -0.398 18.424563 16.973415 3.831432
406 136 1 0.269 15.356314 12.693845 17.385969
407 136 2 0.129 16.089501 11.440534 17.899047
408 136 3 -0.398 16.640344 10.498924 18.284522
409 137 1 0.269 7.047452 5.287176 9.596716
410 137 2 0.129 7.82395 4.064901 10.12083
411 137 3 -0.398 8.407332 3.146608 10.514596
412 138 1 0.269 3.870015 14.655623 15.60241
413 138 2 0.129 3.802168 14.475659 17.130353
414 138 3 -0.398 3.751195 14.340452 18.278294
415 139 1 0.269 12.654455 9.147056 17.746095
416 139 2 0.129 13.388755 7.794714 17.686302
417 139 3 -0.398 13.940432 6.778701 17.64138
418 140 1 0.269 9.960344 13.491487 4.689414
419 140 2 0.129 9.928149 15.002 4.39123
420 140 3 -0.398 9.903961 16.136846 4.167204
421 141 1 0.269 2.02228 4.696869 19.329141
422 141 2 0.129 2.008626 3.156934 19.32567
423 141 3 -0.398 1.998368 1.999982 19.323062
424 142 1 0.269 15.154766 12.601063 13.315644
425 142 2 0.129 15.755676 13.744703 14.153852
426 142 3 -0.398 16.207138 14.603919 14.783597
427 143 1 0.269 5.822277 7.789298 14.483486
428 143 2 0.129 6.220831 9.276822 14.478012
429 143 3 -0.398 6.520263 10.394396 14.473899
430 144 1 0.269 17.192005 5.263604 8.338218
431 144 2 0.129 18.413423 5.880232 7.631459
432 144 3 -0.398 19.331072 6.343505 7.100471
433 145 1 0.269 18.209072 3.989227 3.862505
434 145 2 0.129 18.256182 3.955817 5.401422
435 145 3 -0.398 18.291576 3.930716 6.557608
436 146 1 0.269 19.328408 14.603404 19.325018
437 146 2 0.129 19.330602 13.063412 19.32923
438 146 3 -0.398 19.33225 11.906417 19.332395
439 147 1 0.269 6.688887 17.262434 11.553581
440 147 2 0.129 6.149354 18.349752 12.501339
441 147 3 -0.398 5.744004 19.166652 13.213388
442 148 1 0.269 2.31826 5.979244 3.917581
443 148 2 0.129 2.129972 4.917988 2.817634
444 148 3 -0.398 1.988511 4.120668 1.991246
445 149 1 0.269 15.984897 19.332244 14.972053
446 149 2 0.129 17.39569 19.331105 14.354589
447 149 3 -0.398 18.455617 19.330249 13.890689
448 150 1 0.269 7.329553 6.761791 8.276117
449 150 2 0.129 7.578138 8.278938 8.36596
450 150 3 -0.398 7.7649 9.418768 8.433459
451 151 1 0.269 12.355968 16.9228 13.921251
452 151 2 0.129 12.047657 15.540421 13.316626
453 151 3 -0.398 11.816024 14.501841 12.862372
454 152 1 0.269 5.314804 4.567343 10.289073
455 152 2 0.129 5.760981 3.100627 10.143226
456 152 3 -0.398 6.096194 1.998686 10.033651
457 153 1 0.269 4.197108 4.70902 19.332038
458 153 2 0.129 4.083523 3.173214 19.332149
459 153 3 -0.398 3.998187 2.019365 19.332231
460 154 1 0.269 19.130488 6.126627 19.331348
461 154 2 0.129 19.219066 7.664077 19.331172
462 154 3 -0.398 19.285615 8.819162 19.331039
463 155 1 0.269 5.113481 16.563286 19.330164
464 155 2 0.129 5.30336 15.035037 19.330939
465 155 3 -0.398 5.446015 13.886865 19.331522
466 156 1 0.269 14.141828 8.574438 2.263497
467 156 2 0.129 13.395451 9.523233 3.219692
468 156 3 -0.398 12.8347 10.236061 3.938081
469 157 1 0.269 9.007181 9.539855 2.059867
470 157 2 0.129 10.03116 10.689489 2.022359
471 157 3 -0.398 10.800474 11.553208 1.99418
472 158 1 0.269 12.288378 17.817776 3.704378
473 158 2 0.129 13.409523 17.414383 2.72872
474 158 3 -0.398 14.251837 17.111315 1.995709
475 159 1 0.269 7.354365 12.732336 2.60359
476 159 2 0.129 6.104681 13.562487 2.256114
477 159 3 -0.398 5.165796 14.186178 1.995055
478 160 1 0.269 12.144693 15.472648 6.218148
479 160 2 0.129 13.057796 15.780413 5.016847
480 160 3 -0.398 13.743809 16.011635 4.114311
481 161 1 0.269 15.65967 7.079312 11.107276
482 161 2 0.129 16.014652 7.965784 12.31548
483 161 3 -0.398 16.281349 8.631788 13.223202
484 162 1 0.269 19.331418 7.859357 10.439251
485 162 2 0.129 19.331251 6.352334 10.756238
486 162 3 -0.398 19.331126 5.220109 10.99439
487 163 1 0.269 6.762627 16.787494 16.797004
488 163 2 0.129 6.847968 18.243066 17.292613
489 163 3 -0.398 6.912085 19.336635 17.664964
490 164 1 0.269 13.552051 4.266547 5.678979
491 164 2 0.129 14.158043 2.972008 5.105793
492 164 3 -0.398 14.613324 1.999422 4.675159
493 165 1 0.269 19.333238 19.29418 9.59968
494 165 2 0.129 17.94005 19.315573 10.255554
495 165 3 -0.398 16.89335 19.331646 10.748311
496 166 1 0.269 4.94499 5.74222 1.998657
497 166 2 0.129 5.055112 7.278277 1.998839
498 166 3 -0.398 5.137846 8.432315 1.998977
499 167 1 0.269 16.573613 9.919322 1.999995
500 167 2 0.129 16.450283 8.384272 2.003421
501 167 3 -0.398 16.357626 7.230991 2.005995
502 168 1 0.269 13.650375 11.783036 11.628223
503 168 2 0.129 13.1864 11.221122 10.271543
504 168 3 -0.398 12.837815 10.798956 9.252272
505 169 1 0.269 17.768123 6.98799 9.171202
506 169 2 0.129 17.459939 5.898962 10.21554
507 169 3 -0.398 17.228401 5.080777 11.00015
508 170 1 0.269 17.167769 1.999894 1.999948
509 170 2 0.129 15.6356 1.99967 2.155056
510 170 3 -0.398 14.484484 1.999502 2.271588
511 171 1 0.269 13.802649 12.867124 5.64701
512 171 2 0.129 12.562774 11.994546 5.37698
513 171 3 -0.398 11.631257 11.338979 5.174107
514 172 1 0.269 5.352464 11.676319 15.760042
515 172 2 0.129 5.191963 10.156543 15.9501
516 172 3 -0.398 5.071379 9.014738 16.092889
517 173 1 0.269 14.416823 1.997369 15.893848
518 173 2 0.129 12.881431 1.998674 16.012884
519 173 3 -0.398 11.727893 1.999654 16.102315
520 174 1 0.269 19.331761 12.760133 11.417533
521 174 2 0.129 19.331283 12.320904 9.941499
522 174 3 -0.398 19.330924 11.990911 8.832556
523 175 1 0.269 15.49513 5.42696 1.99729
524 175 2 0.129 14.232226 4.546601 2.037812
525 175 3 -0.398 13.283408 3.885189 2.068256
526 176 1 0.269 8.459382 5.114109 8.191055
527 176 2 0.129 8.979715 6.111002 9.243223
528 176 3 -0.398 9.370642 6.859966 10.033716
529 177 1 0.269 7.235222 16.938649 7.48438
530 177 2 0.129 8.210107 18.118269 7.312059
531 177 3 -0.398 8.942538 19.004516 7.182595
532 178 1 0.269 7.259037 19.320259 15.613957
533 178 2 0.129 8.413256 18.34347 15.321961
534 178 3 -0.398 9.280419 17.60961 15.102585
535 179 1 0.269 1.998978 12.196955 13.087317
536 179 2 0.129 1.996669 13.073479 11.821101
537 179 3 -0.398 1.994934 13.73201 10.869796
538 180 1 0.269 6.669772 9.717954 1.99735
539 180 2 0.129 7.129134 8.248061 1.998327
540 180 3 -0.398 7.474252 7.143732 1.999061
541 181 1 0.269 12.785501 6.863189 7.991359
542 181 2 0.129 12.209827 5.650021 7.237423
543 181 3 -0.398 11.777323 4.738568 6.670991
544 182 1 0.269 19.332137 14.010152 8.222845
545 182 2 0.129 19.33242 13.311074 6.850661
546 182 3 -0.398 19.332633 12.785857 5.819741
547 183 1 0.269 17.057904 13.93826 12.645803
548 183 2 0.129 17.469497 12.552216 12.115638
549 183 3 -0.398 17.778727 11.510884 11.717326
550 184 1 0.269 12.60834 12.469014 2.047838
551 184 2 0.129 13.717999 11.401636 2.016858
552 184 3 -0.398 14.551685 10.599716 1.993582
553 185 1 0.269 4.114189 1.993927 1.998614
554 185 2 0.129 5.654141 2.005576 2.00218
555 185 3 -0.398 6.811105 2.014328 2.004859
556 186 1 0.269 9.119832 8.809441 17.474919
557 186 2 0.129 8.329148 8.022406 18.536519
558 186 3 -0.398 7.735108 7.431108 19.334098
559 187 1 0.269 10.631264 3.591795 15.590643
560 187 2 0.129 11.625283 4.392948 14.729434
561 187 3 -0.398 12.372088 4.994853 14.082409
562 188 1 0.269 1.999919 19.329855 18.992835
563 188 2 0.129 1.99993 17.802014 19.185968
564 188 3 -0.398 1.999939 16.654148 19.331068
565 189 1 0.269 9.880884 2.669323 1.997285
566 189 2 0.129 11.371099 2.28677 2.064456
567 189 3 -0.398 12.490696 1.999359 2.114922
568 190 1 0.269 19.334125 11.384138 1.999117
569 190 2 0.129 18.797167 9.940782 1.999225
570 190 3 -0.398 18.393752 8.85639 1.999307
571 191 1 0.269 11.686766 5.680657 18.101499
572 191 2 0.129 10.288402 5.934842 18.69443
573 191 3 -0.398 9.237812 6.125811 19.139897
574 192 1 0.269 10.807313 15.673212 8.028007
575 192 2 0.129 12.213409 15.56725 8.647091
576 192 3 -0.398 13.269808 15.487641 9.112207
577 193 1 0.269 17.283503 8.287565 7.703686
578 193 2 0.129 16.825813 6.959695 7.072116
579 193 3 -0.398 16.481951 5.962068 6.597617
580 194 1 0.269 18.020549 8.849247 17.782339
581 194 2 0.129 17.552287 9.786333 16.653534
582 194 3 -0.398 17.200482 10.490364 15.805465
583 195 1 0.269 9.038547 6.716369 14.386832
584 195 2 0.129 9.212951 8.189632 14.799966
585 195 3 -0.398 9.34398 9.296493 15.110353
586 196 1 0.269 15.168073 3.47145 3.440342
587 196 2 0.129 16.434345 3.773908 2.617739
588 196 3 -0.398 17.385693 4.001144 1.999718
589 197 1 0.269 11.455857 19.331162 17.494227
590 197 2 0.129 12.940054 19.330643 17.083423
591 197 3 -0.398 14.055129 19.330253 16.774785
592 198 1 0.269 10.564327 2.005209 19.332203
593 198 2 0.129 11.9073 2.001327 18.57854
594 198 3 -0.398 12.916275 1.99841 18.012315
595 199 1 0.269 10.912554 9.453699 5.899481
596 199 2 0.129 12.431423 9.332357 5.676071
597 199 3 -0.398 13.572548 9.241193 5.508223
598 200 1 0.269 2.951822 1.999139 14.743025
599 200 2 0.129 2.408115 1.99928 16.183852
600 200 3 -0.398 1.999629 1.999386 17.266344
601 201 1 0.269 1.999327 7.871165 4.48198
602 201 2 0.129 3.370425 8.023573 5.166422
603 201 3 -0.398 4.40053 8.138077 5.680642
604 202 1 0.269 8.480436 4.786098 15.636798
605 202 2 0.129 7.993773 3.801267 14.557508
606 202 3 -0.398 7.628144 3.061364 13.74664
607 203 1 0.269 3.707749 7.37118 7.392767
608 203 2 0.129 2.731016 6.54532 6.535126
609 203 3 -0.398 1.997198 5.924851 5.890782
610 204 1 0.269 9.533122 11.59362 4.225812
611 204 2 0.129 9.358321 12.507406 2.998604
612 204 3 -0.398 9.226992 13.193932 2.076604
613 205 1 0.269 2.916705 1.999537 10.240432
614 205 2 0.129 2.393128 1.999614 8.792169
615 205 3 -0.398 1.999765 1.999672 7.70409
616 206 1 0.269 10.785552 11.250469 9.973956
617 206 2 0.129 9.302928 10.845091 10.069317
618 206 3 -0.398 8.189034 10.540531 10.140961
619 207 1 0.269 15.168053 3.691549 12.394016
620 207 2 0.129 15.83603 5.051614 12.669025
621 207 3 -0.398 16.33788 6.073429 12.87564
622 208 1 0.269 10.767105 14.65111 2.015553
623 208 2 0.129 11.114088 13.462172 2.930775
624 208 3 -0.398 11.374775 12.568925 3.61838
625 209 1 0.269 10.404811 3.39841 3.784284
626 209 2 0.129 11.701084 2.598794 4.012077
627 209 3 -0.398 12.674972 1.998043 4.183219
628 210 1 0.269 7.4459 14.51995 16.683475
629 210 2 0.129 8.883198 14.284223 17.183683
630 210 3 -0.398 9.963038 14.107122 17.559488
631 211 1 0.269 5.562897 12.747486 11.546249
632 211 2 0.129 5.921803 11.458411 10.783968
633 211 3 -0.398 6.191448 10.48993 10.211267
634 212 1 0.269 1.992482 14.761359 6.957086
635 212 2 0.129 3.434795 14.31374 7.258702
636 212 3 -0.398 4.518403 13.977445 7.485305
637 213 1 0.269 15.742332 6.282295 9.265866
638 213 2 0.129 14.850742 5.731197 8.137611
639 213 3 -0.398 14.180892 5.317159 7.289954
640 214 1 0.269 2.006705 18.039789 17.200081
641 214 2 0.129 2.002899 18.777078 15.84805
642 214 3 -0.398 2.00004 19.331003 14.83227
643 215 1 0.269 8.202852 13.524483 14.833036
644 215 2 0.129 6.685926 13.573529 15.094052
645 215 3 -0.398 5.546261 13.610378 15.290153
646 216 1 0.269 15.637951 13.137484 3.905086
647 216 2 0.129 16.662975 12.278688 3.141284
648 216 3 -0.398 17.433074 11.633475 2.56744
649 217 1 0.269 12.100821 19.326052 7.701416
650 217 2 0.129 12.173754 19.330339 6.16315
651 217 3 -0.398 12.228549 19.333559 5.007452
652 218 1 0.269 3.89222 9.837315 14.464084
653 218 2 0.129 4.493647 8.858123 13.438869
654 218 3 -0.398 4.945498 8.122457 12.668626
655 219 1 0.269 2.119578 1.996554 2.313769
656 219 2 0.129 2.048416 2.890002 3.566082
657 219 3 -0.398 1.994952 3.561247 4.506944
658 220 1 0.269 4.550321 17.571425 1.999927
659 220 2 0.129 3.6962 17.442533 3.274864
660 220 3 -0.398 3.0545 17.345696 4.232722
661 221 1 0.269 3.945817 8.329828 9.341194
662 221 2 0.129 2.834204 7.274928 9.189203
663 221 3 -0.398 1.99905 6.482382 9.075012
664 222 1 0.269 9.219351 19.331635 17.749593
665 222 2 0.129 9.8266 19.331809 16.334373
666 222 3 -0.398 10.282826 19.33194 15.271119
667 223 1 0.269 14.614354 5.35637 14.381935
668 223 2 0.129 14.527074 6.846369 14.002611
669 223 3 -0.398 14.461502 7.965803 13.717626
670 224 1 0.269 7.622971 7.902749 13.620875
671 224 2 0.129 8.020745 9.390474 13.613794
672 224 3 -0.398 8.319593 10.5082 13.608475
673 225 1 0.269 18.129724 14.855567 15.273784
674 225 2 0.129 17.876251 15.428067 13.866803
675 225 3 -0.398 17.685817 15.858186 12.809741
676 226 1 0.269 15.386181 15.495411 2.314959